TITLE = "TEST_PROBLEM"
FILETYPE = FULL
VARIABLES = "x-direction, [m]"  "y-direction, [m]" "rho<sub>N2</sub> [kg/m<sup>3</sup>] "  "rho<sub>O2</sub> [kg/m<sup>3</sup>] "  "rho<sub>NO</sub> [kg/m<sup>3</sup>] "  "rho<sub>N</sub> [kg/m<sup>3</sup>] "  "rho<sub>O</sub> [kg/m<sup>3</sup>] "  "rho<sub>N2p</sub> [kg/m<sup>3</sup>] "  "rho<sub>O2p</sub> [kg/m<sup>3</sup>] "  "rho<sub>NOp</sub> [kg/m<sup>3</sup>] "  "rho<sub>Np</sub> [kg/m<sup>3</sup>] "  "rho<sub>Op</sub> [kg/m<sup>3</sup>] "  "rho<sub>e</sub> [kg/m<sup>3</sup>] "  "u[m/s] "  "v[m/s] "  "T<sub>tra</sub> [K] "  "T<sub>rot</sub> [K] "  "T<sub>ve</sub> [K] "  "T<sub>e</sub> [K] "  
ZONE
T = "CPU number: 0"
NODES = 7748
ELEMENTS = 7548
F = FEPOINT
ET = QUADRILATERAL
-0.1 1e-08 0.000207298 6.29735e-05 0 0 0 0 0 0 0 0 1.00014e-14 7650 1.49312e-08 254.023 400 300 254 
-0.0900451 1e-08 0.00020734 6.29863e-05 0 0 0 0 0 0 0 0 1.00034e-14 7650 -6.76153e-09 254.057 400 300 254 
-0.0810811 1e-08 0.000207407 6.30066e-05 0 0 0 0 0 0 0 0 1.00066e-14 7649.99 2.80709e-08 254.111 400 300 254 
-0.0730093 1e-08 0.000207487 6.3031e-05 0 0 0 0 0 0 0 0 1.00105e-14 7649.99 1.35488e-07 254.177 400 300 254 
-0.065741 1e-08 0.000207577 6.30584e-05 0 0 0 0 0 0 0 0 1.00148e-14 7649.99 1.61392e-07 254.25 400 300 254 
-0.0591961 1e-08 0.000207674 6.30878e-05 0 0 0 0 0 0 0 0 1.00195e-14 7649.98 1.19111e-07 254.328 400 300 254 
-0.0533027 1e-08 0.000207775 6.31185e-05 0 0 0 0 0 0 0 0 1.00244e-14 7649.98 2.2454e-08 254.41 400 300 254 
-0.0479958 1e-08 0.000207879 6.31499e-05 0 0 0 0 0 0 0 0 1.00294e-14 7649.97 -8.10834e-08 254.494 400 300 254 
-0.0432171 1e-08 0.000207984 6.31817e-05 0 0 0 0 0 0 0 0 1.00344e-14 7649.97 -1.43409e-07 254.579 400 300 254 
-0.038914 1e-08 0.000208089 6.32136e-05 0 0 0 0 0 0 0 0 1.00395e-14 7649.96 -2.03015e-07 254.671 400 300 254 
-0.0350391 1e-08 0.000208214 6.32516e-05 0 0 0 0 0 0 0 0 1.00455e-14 7649.84 -1.21413e-06 255.249 400 300 254 
-0.0315498 1e-08 0.000208917 6.34653e-05 0 0 0 0 0 0 0 0 1.00794e-14 7644.36 -1.4935e-05 285.069 400 300 254 
-0.0284077 1e-08 0.000217106 6.59529e-05 0 0 0 0 0 0 0 0 1.04745e-14 7482.55 -0.000469875 1547.91 400 300 254 
-0.0255782 1e-08 0.000292982 8.90027e-05 0 0 0 0 0 0 0 0 1.41352e-14 6154.37 -0.0111783 12542.5 400 300 254 
-0.0230302 1e-08 0.000490443 0.000148988 0 0 0 0 0 0 0 0 2.3662e-14 3737.29 0.00848427 30775.6 400 300 254 
-0.0207356 1e-08 0.000693736 0.000210745 0 0 0 0 0 0 0 0 3.34701e-14 2094.53 0.0427595 40862.4 400 300 254 
-0.0186692 1e-08 0.000787893 0.000239348 0 0 0 0 0 0 0 0 3.80129e-14 1504.64 0.028503 43729.9 400 300 254 
-0.0168082 1e-08 0.000813019 0.000246981 0 0 0 0 0 0 0 0 3.92251e-14 1281.59 0.0097076 44879.3 400 300 254 
-0.0151322 1e-08 0.000816715 0.000248104 0 0 0 0 0 0 0 0 3.94035e-14 1173.73 0.000801686 45433.3 400 300 254 
-0.0136227 1e-08 0.000816698 0.000248099 0 0 0 0 0 0 0 0 3.94026e-14 1089.33 -0.00300677 45882.6 400 300 254 
-0.0122632 1e-08 0.00081571 0.000247798 0 0 0 0 0 0 0 0 3.93549e-14 1013.07 -0.00423402 46316.7 400 300 254 
-0.0110386 1e-08 0.00081405 0.000247294 0 0 0 0 0 0 0 0 3.92749e-14 943.241 -0.00438359 46739.3 400 300 254 
-0.00993545 1e-08 0.000811833 0.000246621 0 0 0 0 0 0 0 0 3.91679e-14 879.122 -0.00417215 47150.1 400 300 254 
-0.00894165 1e-08 0.000809154 0.000245807 0 0 0 0 0 0 0 0 3.90386e-14 820.067 -0.00388703 47550 400 300 254 
-0.00804625 1e-08 0.000806103 0.00024488 0 0 0 0 0 0 0 0 3.88914e-14 765.458 -0.00353578 47940.1 400 300 254 
-0.0072394 1e-08 0.00080276 0.000243864 0 0 0 0 0 0 0 0 3.87301e-14 714.736 -0.0030487 48321.2 400 300 254 
-0.00651221 1e-08 0.000799194 0.000242781 0 0 0 0 0 0 0 0 3.85581e-14 667.402 -0.00225545 48694.2 400 300 254 
-0.00585668 1e-08 0.000795467 0.000241649 0 0 0 0 0 0 0 0 3.83783e-14 623.007 -0.000748129 49059.8 400 300 254 
-0.00526561 1e-08 0.000791619 0.00024048 0 0 0 0 0 0 0 0 3.81927e-14 581.195 -0.000164118 49418 400 300 254 
-0.00473248 1e-08 0.000787653 0.000239275 0 0 0 0 0 0 0 0 3.80013e-14 541.853 -0.00809482 49767.8 400 300 254 
-0.00425143 1e-08 0.000783564 0.000238033 0 0 0 0 0 0 0 0 3.7804e-14 504.917 -0.0270351 50108.4 400 300 254 
-0.00381717 1e-08 0.000779476 0.000236791 0 0 0 0 0 0 0 0 3.76068e-14 469.503 -0.0241062 50444.8 400 300 254 
-0.00342491 1e-08 0.000775609 0.000235617 0 0 0 0 0 0 0 0 3.74202e-14 433.89 0.0486261 50787.8 400 300 254 
-0.00307034 1e-08 0.000771873 0.000234482 0 0 0 0 0 0 0 0 3.724e-14 398.084 0.127051 51135.3 400 300 254 
-0.00274956 1e-08 0.000767671 0.000233205 0 0 0 0 0 0 0 0 3.70373e-14 365.52 -0.00867055 51463.5 400 300 254 
-0.00245903 1e-08 0.000762681 0.000231689 0 0 0 0 0 0 0 0 3.67965e-14 338.359 -0.426129 51761.8 400 300 254 
-0.00219557 1e-08 0.000757696 0.000230175 0 0 0 0 0 0 0 0 3.6556e-14 311.3 -0.678021 52074.6 400 300 254 
-0.00195627 1e-08 0.000753867 0.000229012 0 0 0 0 0 0 0 0 3.63712e-14 275.351 -0.323408 52472.3 400 300 254 
-0.00173849 1e-08 0.000750923 0.000228117 0 0 0 0 0 0 0 0 3.62292e-14 229.422 0.885911 52971.8 400 300 254 
-0.00153985 1e-08 0.000749904 0.000227808 0 0 0 0 0 0 0 0 3.61801e-14 162.504 0.862509 53680.5 400 300 254 
-0.00135815 1e-08 0.00074538 0.000226434 0 0 0 0 0 0 0 0 3.59618e-14 104.549 10.3244 54396.9 400 300 254 
-0.0011914 1e-08 0.00074254 0.000225571 0 0 0 0 0 0 0 0 3.58248e-14 33.0572 -3.55932 55328 400 300 254 
-0.00103776 1e-08 0.000716981 0.000217806 0 0 0 0 0 0 0 0 3.45917e-14 103.7 29.9194 55373.6 400 300 254 
-0.000895534 1e-08 0.000688634 0.000209195 0 0 0 0 0 0 0 0 3.3224e-14 172.242 -26.0549 56311.3 400 300 254 
-0.000763167 1e-08 0.000665138 0.000202057 0 0 0 0 0 0 0 0 3.20904e-14 338.246 30.8466 54530 400 300 254 
-0.000639199 1e-08 0.000683121 0.00020752 0 0 0 0 0 0 0 0 3.2958e-14 345.96 -14.7166 54416.3 400 300 254 
-0.000522264 1e-08 0.00071516 0.000217253 0 0 0 0 0 0 0 0 3.45038e-14 111.932 18.5675 52235 400 300 254 
-0.000411077 1e-08 0.00074845 0.000227366 0 0 0 0 0 0 0 0 3.61099e-14 139.786 49.3114 50457.8 400 300 254 
-0.000304414 1e-08 0.000769818 0.000233857 0 0 0 0 0 0 0 0 3.71408e-14 -239.897 -0.806696 50716 400 300 254 
-0.0002011 1e-08 0.000757635 0.000230156 0 0 0 0 0 0 0 0 3.65531e-14 -63.6367 77.1894 49796.1 400 300 254 
-0.0001 1e-08 0.000758361 0.000230377 0 0 0 0 0 0 0 0 3.65881e-14 -54.6406 -46.1506 52687.8 400 300 254 
0 1e-08 0.000741526 0.000225263 0 0 0 0 0 0 0 0 3.57758e-14 -656.107 3.24998 52443.7 400 300 254 
-0.100008 0.0025 0.000207286 6.29699e-05 0 0 0 0 0 0 0 0 1.00008e-14 7650 -0.153466 254.013 400 300 254 
-0.0900826 0.00240405 0.000207325 6.29817e-05 0 0 0 0 0 0 0 0 1.00027e-14 7650 -0.416579 254.045 400 300 254 
-0.0811405 0.00230109 0.00020738 6.29984e-05 0 0 0 0 0 0 0 0 1.00053e-14 7649.99 -0.659497 254.089 400 300 254 
-0.0730844 0.00219496 0.000207447 6.30187e-05 0 0 0 0 0 0 0 0 1.00085e-14 7649.99 -0.909869 254.143 400 300 254 
-0.065827 0.00208854 0.000207522 6.30416e-05 0 0 0 0 0 0 0 0 1.00122e-14 7649.99 -1.15543 254.204 400 300 254 
-0.0592893 0.00198392 0.000207604 6.30665e-05 0 0 0 0 0 0 0 0 1.00161e-14 7649.98 -1.39025 254.27 400 300 254 
-0.0534003 0.00188256 0.000207691 6.30928e-05 0 0 0 0 0 0 0 0 1.00203e-14 7649.98 -1.61132 254.34 400 300 254 
-0.0480956 0.00178547 0.00020778 6.312e-05 0 0 0 0 0 0 0 0 1.00246e-14 7649.98 -1.81714 254.413 400 300 254 
-0.0433175 0.0016933 0.000207871 6.31477e-05 0 0 0 0 0 0 0 0 1.0029e-14 7649.97 -2.0071 254.486 400 300 254 
-0.0390137 0.00160641 0.000207964 6.31757e-05 0 0 0 0 0 0 0 0 1.00335e-14 7649.97 -2.18109 254.568 400 300 254 
-0.0351373 0.00152496 0.000208077 6.321e-05 0 0 0 0 0 0 0 0 1.00389e-14 7649.84 -2.339 255.13 400 300 254 
-0.0316459 0.00144897 0.000208761 6.34179e-05 0 0 0 0 0 0 0 0 1.00719e-14 7644.46 -2.46446 284.374 400 300 254 
-0.0285012 0.00137831 0.000216799 6.58597e-05 0 0 0 0 0 0 0 0 1.04597e-14 7485.47 -2.16702 1520.87 400 300 254 
-0.0256688 0.00131282 0.000291526 8.85605e-05 0 0 0 0 0 0 0 0 1.4065e-14 6168.91 -3.94767 12407.5 400 300 254 
-0.0231177 0.00125225 0.000487365 0.000148053 0 0 0 0 0 0 0 0 2.35135e-14 3756 -6.47346 30585.5 400 300 254 
-0.02082 0.00119634 0.00069082 0.000209859 0 0 0 0 0 0 0 0 3.33295e-14 2101.78 2.09367 40747.8 400 300 254 
-0.0187504 0.00114478 0.00078646 0.000238913 0 0 0 0 0 0 0 0 3.79437e-14 1505.11 16.9178 43667.1 400 300 254 
-0.0168862 0.0010973 0.000812568 0.000246844 0 0 0 0 0 0 0 0 3.92034e-14 1280.21 24.064 44847.1 400 300 254 
-0.015207 0.00105357 0.0008166 0.000248069 0 0 0 0 0 0 0 0 3.93979e-14 1172.59 26.0583 45416.9 400 300 254 
-0.0136945 0.00101333 0.000816697 0.000248098 0 0 0 0 0 0 0 0 3.94026e-14 1088.75 26.4363 45872.4 400 300 254 
-0.0123319 0.00097627 0.000815766 0.000247815 0 0 0 0 0 0 0 0 3.93576e-14 1012.8 26.4457 46309.9 400 300 254 
-0.0111043 0.000942136 0.000814148 0.000247324 0 0 0 0 0 0 0 0 3.92796e-14 943.045 26.4523 46734.9 400 300 254 
-0.00999827 0.000910672 0.000811966 0.000246661 0 0 0 0 0 0 0 0 3.91743e-14 878.862 26.5376 47148 400 300 254 
-0.00900168 0.000881637 0.000809321 0.000245858 0 0 0 0 0 0 0 0 3.90467e-14 819.663 26.7243 47549.9 400 300 254 
-0.00810356 0.000854812 0.000806302 0.000244941 0 0 0 0 0 0 0 0 3.8901e-14 764.874 27.0254 47941.8 400 300 254 
-0.00729406 0.000829989 0.00080299 0.000243934 0 0 0 0 0 0 0 0 3.87412e-14 713.963 27.4524 48325 400 300 254 
-0.0065643 0.00080698 0.000799454 0.00024286 0 0 0 0 0 0 0 0 3.85706e-14 666.453 28.0157 48699.9 400 300 254 
-0.00590627 0.000785609 0.000795754 0.000241736 0 0 0 0 0 0 0 0 3.83921e-14 621.914 28.7289 49067.4 400 300 254 
-0.00531276 0.000765716 0.000791932 0.000240575 0 0 0 0 0 0 0 0 3.82077e-14 580.012 29.6108 49427.4 400 300 254 
-0.00477724 0.000747156 0.000787992 0.000239378 0 0 0 0 0 0 0 0 3.80177e-14 540.634 30.6614 49779.2 400 300 254 
-0.00429386 0.000729795 0.000783938 0.000238147 0 0 0 0 0 0 0 0 3.78221e-14 503.685 31.8229 50121.9 400 300 254 
-0.00385731 0.000713511 0.000779882 0.000236915 0 0 0 0 0 0 0 0 3.76264e-14 468.361 33.0679 50460.3 400 300 254 
-0.0034628 0.000698195 0.000776006 0.000235737 0 0 0 0 0 0 0 0 3.74394e-14 433.269 34.6266 50803 400 300 254 
-0.00310602 0.000683747 0.000772212 0.000234584 0 0 0 0 0 0 0 0 3.72563e-14 398.606 36.8941 51147.6 400 300 254 
-0.00278306 0.000670075 0.00076802 0.000233311 0 0 0 0 0 0 0 0 3.70541e-14 367.152 39.7445 51474.8 400 300 254 
-0.00249039 0.000657097 0.000763255 0.000231864 0 0 0 0 0 0 0 0 3.68242e-14 340.053 42.2488 51780.2 400 300 254 
-0.0022248 0.00064474 0.000758595 0.000230448 0 0 0 0 0 0 0 0 3.65994e-14 312.677 43.8829 52101.2 400 300 254 
-0.0019834 0.000632936 0.000754836 0.000229306 0 0 0 0 0 0 0 0 3.6418e-14 278.702 45.6792 52487.9 400 300 254 
-0.00176355 0.000621623 0.000751512 0.000228296 0 0 0 0 0 0 0 0 3.62577e-14 239.347 49.6612 52938.8 400 300 254 
-0.00156284 0.000610748 0.000750112 0.000227871 0 0 0 0 0 0 0 0 3.61901e-14 181.96 55.1627 53566.4 400 300 254 
-0.0013791 0.00060026 0.000743605 0.000225894 0 0 0 0 0 0 0 0 3.58761e-14 152.276 71.9965 54026.9 400 300 254 
-0.00121031 0.000590114 0.000741761 0.000225334 0 0 0 0 0 0 0 0 3.57872e-14 82.5888 75.6169 54949.8 400 300 254 
-0.00105465 0.000580269 0.000718792 0.000218356 0 0 0 0 0 0 0 0 3.4679e-14 190.788 105.078 54240.1 400 300 254 
-0.000910422 0.000570688 0.000702155 0.000213303 0 0 0 0 0 0 0 0 3.38764e-14 188.236 53.2992 55483.9 400 300 254 
-0.000776058 0.000561337 0.000689903 0.00020958 0 0 0 0 0 0 0 0 3.32852e-14 282.056 57.3255 53314.5 400 300 254 
-0.000650102 0.000552185 0.00071045 0.000215822 0 0 0 0 0 0 0 0 3.42766e-14 250.277 -6.49967 54632.6 400 300 254 
-0.00053119 0.000543203 0.00072841 0.000221278 0 0 0 0 0 0 0 0 3.5143e-14 26.9745 19.8722 52975 400 300 254 
-0.000418034 0.000534366 0.000740715 0.000225016 0 0 0 0 0 0 0 0 3.57367e-14 195.11 50.2507 51234.2 400 300 254 
-0.000309412 0.00052565 0.000754945 0.000229339 0 0 0 0 0 0 0 0 3.64233e-14 -263.898 20.2172 52081.6 400 300 254 
-0.000204149 0.000517032 0.000742971 0.000225702 0 0 0 0 0 0 0 0 3.58456e-14 8.09391 64.4338 49957.3 400 300 254 
-0.000101109 0.000508492 0.0007513 0.000228232 0 0 0 0 0 0 0 0 3.62474e-14 -29.6188 -37.0979 53771.8 400 300 254 
8.20209e-07 0.000500009 0.000735299 0.000223371 0 0 0 0 0 0 0 0 3.54754e-14 -560.084 2.66943 52779.3 400 300 254 
-0.100003 0.00500111 0.000207278 6.29673e-05 0 0 0 0 0 0 0 0 1.00004e-14 7650 -0.161191 254.006 400 300 254 
-0.0901086 0.00481129 0.000207298 6.29735e-05 0 0 0 0 0 0 0 0 1.00013e-14 7650 -0.45493 254.022 400 300 254 
-0.0811893 0.00460741 0.00020733 6.29832e-05 0 0 0 0 0 0 0 0 1.00029e-14 7650 -0.732885 254.048 400 300 254 
-0.0731499 0.00439715 0.000207371 6.29957e-05 0 0 0 0 0 0 0 0 1.00049e-14 7649.99 -0.99516 254.081 400 300 254 
-0.0659044 0.0041862 0.00020742 6.30105e-05 0 0 0 0 0 0 0 0 1.00072e-14 7649.99 -1.24287 254.12 400 300 254 
-0.0593748 0.00397871 0.000207475 6.30272e-05 0 0 0 0 0 0 0 0 1.00099e-14 7649.99 -1.47558 254.164 400 300 254 
-0.0534909 0.00377762 0.000207535 6.30453e-05 0 0 0 0 0 0 0 0 1.00128e-14 7649.99 -1.69268 254.213 400 300 254 
-0.0481892 0.00358493 0.000207598 6.30647e-05 0 0 0 0 0 0 0 0 1.00158e-14 7649.98 -1.89377 254.264 400 300 254 
-0.0434123 0.00340194 0.000207665 6.3085e-05 0 0 0 0 0 0 0 0 1.00191e-14 7649.98 -2.07875 254.318 400 300 254 
-0.0391086 0.00322938 0.000207734 6.3106e-05 0 0 0 0 0 0 0 0 1.00224e-14 7649.97 -2.24769 254.38 400 300 254 
-0.0352312 0.00306757 0.000207824 6.31333e-05 0 0 0 0 0 0 0 0 1.00267e-14 7649.85 -2.3989 254.891 400 300 254 
-0.0317381 0.00291654 0.000208457 6.33256e-05 0 0 0 0 0 0 0 0 1.00573e-14 7644.84 -2.44388 281.864 400 300 254 
-0.0285912 0.00277609 0.00021601 6.56201e-05 0 0 0 0 0 0 0 0 1.04217e-14 7496.24 -0.144096 1425.83 400 300 254 
-0.0257564 0.00264585 0.000287285 8.72721e-05 0 0 0 0 0 0 0 0 1.38604e-14 6221.2 9.01573 11961.3 400 300 254 
-0.0232025 0.00252537 0.000478822 0.000145458 0 0 0 0 0 0 0 0 2.31013e-14 3823.41 16.1547 30006.1 400 300 254 
-0.0209019 0.0024141 0.000682848 0.000207437 0 0 0 0 0 0 0 0 3.29449e-14 2131.9 22.2476 40430.9 400 300 254 
-0.0188294 0.00231148 0.000781745 0.000237481 0 0 0 0 0 0 0 0 3.77163e-14 1513.38 34.0694 43475.1 400 300 254 
-0.0169622 0.00221691 0.000809921 0.00024604 0 0 0 0 0 0 0 0 3.90757e-14 1280.32 40.3242 44716.3 400 300 254 
-0.0152801 0.0021298 0.000814632 0.000247471 0 0 0 0 0 0 0 0 3.93029e-14 1170.86 42.4971 45318.4 400 300 254 
-0.0137646 0.00204958 0.000814967 0.000247573 0 0 0 0 0 0 0 0 3.93191e-14 1086.93 43.3084 45788.3 400 300 254 
-0.0123991 0.00197569 0.000814186 0.000247335 0 0 0 0 0 0 0 0 3.92814e-14 1010.85 43.7028 46235.2 400 300 254 
-0.0111687 0.00190759 0.000812696 0.000246883 0 0 0 0 0 0 0 0 3.92095e-14 940.759 44.0492 46668 400 300 254 
-0.0100599 0.00184479 0.000810635 0.000246257 0 0 0 0 0 0 0 0 3.91101e-14 876.09 44.4744 47088 400 300 254 
-0.00906062 0.0017868 0.000808105 0.000245488 0 0 0 0 0 0 0 0 3.8988e-14 816.331 45.0361 47496.6 400 300 254 
-0.00815985 0.0017332 0.000805196 0.000244604 0 0 0 0 0 0 0 0 3.88477e-14 760.965 45.7705 47895.1 400 300 254 
-0.00734777 0.00168356 0.000801987 0.00024363 0 0 0 0 0 0 0 0 3.86929e-14 709.502 46.7029 48284.5 400 300 254 
-0.00661548 0.00163753 0.000798548 0.000242585 0 0 0 0 0 0 0 0 3.85269e-14 661.502 47.8518 48665.6 400 300 254 
-0.00595498 0.00159474 0.000794938 0.000241488 0 0 0 0 0 0 0 0 3.83528e-14 616.57 49.2331 49038.9 400 300 254 
-0.00535905 0.00155489 0.000791204 0.000240354 0 0 0 0 0 0 0 0 3.81726e-14 574.374 50.8668 49404.8 400 300 254 
-0.00482116 0.00151768 0.000787365 0.000239188 0 0 0 0 0 0 0 0 3.79874e-14 534.737 52.7596 49762.8 400 300 254 
-0.00433544 0.00148284 0.000783417 0.000237988 0 0 0 0 0 0 0 0 3.77969e-14 497.617 54.8582 50111.9 400 300 254 
-0.00389659 0.00145015 0.000779409 0.000236771 0 0 0 0 0 0 0 0 3.76036e-14 462.646 57.0924 50453.9 400 300 254 
-0.00349983 0.00141938 0.00077548 0.000235577 0 0 0 0 0 0 0 0 3.7414e-14 428.856 59.5814 50795.1 400 300 254 
-0.00314082 0.00139032 0.000771675 0.000234421 0 0 0 0 0 0 0 0 3.72304e-14 395.741 62.671 51138.7 400 300 254 
-0.00281566 0.00136281 0.000767766 0.000233234 0 0 0 0 0 0 0 0 3.70418e-14 364.491 66.4433 51476.3 400 300 254 
-0.00252081 0.00133667 0.000763495 0.000231937 0 0 0 0 0 0 0 0 3.68358e-14 336.559 70.2955 51798.5 400 300 254 
-0.00225307 0.00131177 0.000759037 0.000230582 0 0 0 0 0 0 0 0 3.66207e-14 310.7 73.5645 52116.8 400 300 254 
-0.00200953 0.00128796 0.000754822 0.000229302 0 0 0 0 0 0 0 0 3.64173e-14 283.809 76.5871 52456.7 400 300 254 
-0.00178755 0.00126513 0.000750956 0.000228127 0 0 0 0 0 0 0 0 3.62308e-14 254.759 80.4412 52831 400 300 254 
-0.00158474 0.00124317 0.000746913 0.000226899 0 0 0 0 0 0 0 0 3.60357e-14 226.492 85.5463 53222.1 400 300 254 
-0.0013989 0.00122197 0.000743394 0.00022583 0 0 0 0 0 0 0 0 3.5866e-14 195.358 92.6835 53670 400 300 254 
-0.00122804 0.00120145 0.000737897 0.00022416 0 0 0 0 0 0 0 0 3.56008e-14 176.438 99.5554 54028.8 400 300 254 
-0.0010703 0.00118153 0.000733794 0.000222914 0 0 0 0 0 0 0 0 3.54028e-14 153.295 104.696 54462.6 400 300 254 
-0.000924012 0.00116214 0.000726092 0.000220574 0 0 0 0 0 0 0 0 3.50312e-14 157.221 97.8459 54549.7 400 300 254 
-0.000787596 0.0011432 0.000723925 0.000219916 0 0 0 0 0 0 0 0 3.49267e-14 144.242 79.971 54774.1 400 300 254 
-0.000659596 0.00112466 0.000722653 0.000219529 0 0 0 0 0 0 0 0 3.48653e-14 118.155 57.3565 54662 400 300 254 
-0.000538649 0.00110645 0.000725831 0.000220495 0 0 0 0 0 0 0 0 3.50186e-14 107.369 50.6331 54679.3 400 300 254 
-0.000423466 0.00108854 0.000730128 0.0002218 0 0 0 0 0 0 0 0 3.52259e-14 50.391 52.5132 54621.9 400 300 254 
-0.000312825 0.00107086 0.000731322 0.000222163 0 0 0 0 0 0 0 0 3.52835e-14 73.25 56.5965 54451.2 400 300 254 
-0.000205552 0.00105338 0.000733173 0.000222725 0 0 0 0 0 0 0 0 3.53728e-14 21.4967 60.8319 54638.8 400 300 254 
-0.000100512 0.00103605 0.000728249 0.000221229 0 0 0 0 0 0 0 0 3.51353e-14 16.3962 59.5945 54406.6 400 300 254 
3.4056e-06 0.00101884 0.000730931 0.000222044 0 0 0 0 0 0 0 0 3.52647e-14 72.7663 64.3653 54694.2 400 300 254 
-0.0999856 0.0075044 0.000207273 6.29658e-05 0 0 0 0 0 0 0 0 1.00001e-14 7650 -0.122355 254.002 400 300 254 
-0.0901231 0.00722277 0.000207281 6.29683e-05 0 0 0 0 0 0 0 0 1.00005e-14 7650 -0.357024 254.009 400 300 254 
-0.0812277 0.00692003 0.000207296 6.2973e-05 0 0 0 0 0 0 0 0 1.00013e-14 7650 -0.597008 254.021 400 300 254 
-0.0732059 0.00660762 0.000207319 6.29798e-05 0 0 0 0 0 0 0 0 1.00023e-14 7650 -0.831178 254.039 400 300 254 
-0.0659731 0.00629401 0.000207347 6.29885e-05 0 0 0 0 0 0 0 0 1.00037e-14 7650 -1.05657 254.062 400 300 254 
-0.0594525 0.00598542 0.000207382 6.2999e-05 0 0 0 0 0 0 0 0 1.00054e-14 7649.99 -1.27129 254.089 400 300 254 
-0.0535745 0.00568622 0.000207421 6.3011e-05 0 0 0 0 0 0 0 0 1.00073e-14 7649.99 -1.47405 254.121 400 300 254 
-0.0482765 0.00539942 0.000207465 6.30242e-05 0 0 0 0 0 0 0 0 1.00094e-14 7649.99 -1.664 254.156 400 300 254 
-0.0435015 0.00512695 0.000207512 6.30386e-05 0 0 0 0 0 0 0 0 1.00117e-14 7649.98 -1.84064 254.194 400 300 254 
-0.0391983 0.00486992 0.000207563 6.3054e-05 0 0 0 0 0 0 0 0 1.00141e-14 7649.98 -2.00367 254.241 400 300 254 
-0.0353206 0.00462884 0.000207633 6.30753e-05 0 0 0 0 0 0 0 0 1.00175e-14 7649.87 -2.14922 254.691 400 300 254 
-0.0318263 0.00440374 0.000208208 6.32499e-05 0 0 0 0 0 0 0 0 1.00453e-14 7645.36 -2.11133 278.636 400 300 254 
-0.0286777 0.00419433 0.000215168 6.53642e-05 0 0 0 0 0 0 0 0 1.0381e-14 7510.59 2.36803 1302.78 400 300 254 
-0.0258407 0.00400009 0.000282245 8.57411e-05 0 0 0 0 0 0 0 0 1.36173e-14 6293.73 26.0073 11368.7 400 300 254 
-0.0232845 0.00382034 0.000468997 0.000142473 0 0 0 0 0 0 0 0 2.26273e-14 3919.73 50.5836 29255.1 400 300 254 
-0.0209813 0.00365427 0.000673992 0.000204747 0 0 0 0 0 0 0 0 3.25176e-14 2179.76 59.4258 40048.6 400 300 254 
-0.0189061 0.00350104 0.000776265 0.000235816 0 0 0 0 0 0 0 0 3.74519e-14 1531.96 68.7267 43238.1 400 300 254 
-0.0170362 0.00335979 0.000806467 0.000244991 0 0 0 0 0 0 0 0 3.8909e-14 1286.04 73.2903 44536.5 400 300 254 
-0.0153513 0.00322963 0.000811795 0.000246609 0 0 0 0 0 0 0 0 3.91661e-14 1171.75 74.8005 45169.4 400 300 254 
-0.0138331 0.00310971 0.000812336 0.000246773 0 0 0 0 0 0 0 0 3.91921e-14 1085.87 75.3993 45653.8 400 300 254 
-0.0124648 0.00299919 0.000811698 0.00024658 0 0 0 0 0 0 0 0 3.91614e-14 1008.42 75.6405 46111.2 400 300 254 
-0.0112317 0.00289729 0.000810344 0.000246168 0 0 0 0 0 0 0 0 3.9096e-14 937.141 75.8289 46553.3 400 300 254 
-0.0101203 0.00280326 0.000808413 0.000245582 0 0 0 0 0 0 0 0 3.90029e-14 871.375 76.1108 46981.9 400 300 254 
-0.00911834 0.0027164 0.000806008 0.000244851 0 0 0 0 0 0 0 0 3.88868e-14 810.597 76.5712 47398.7 400 300 254 
-0.008215 0.00263605 0.000803215 0.000244003 0 0 0 0 0 0 0 0 3.87521e-14 754.298 77.2656 47805.1 400 300 254 
-0.00740038 0.00256162 0.000800115 0.000243061 0 0 0 0 0 0 0 0 3.86025e-14 702.005 78.2307 48202.1 400 300 254 
-0.00666561 0.00249253 0.000796776 0.000242047 0 0 0 0 0 0 0 0 3.84414e-14 653.293 79.4893 48590.5 400 300 254 
-0.00600267 0.00242827 0.000793256 0.000240977 0 0 0 0 0 0 0 0 3.82716e-14 607.796 81.0543 48970.8 400 300 254 
-0.00540433 0.00236838 0.000789604 0.000239868 0 0 0 0 0 0 0 0 3.80954e-14 565.187 82.9371 49343.2 400 300 254 
-0.00486408 0.00231242 0.000785853 0.000238728 0 0 0 0 0 0 0 0 3.79144e-14 525.225 85.1448 49708 400 300 254 
-0.00437603 0.00225999 0.00078201 0.000237561 0 0 0 0 0 0 0 0 3.77291e-14 487.798 87.6419 50064.5 400 300 254 
-0.00393488 0.00221075 0.000778091 0.00023637 0 0 0 0 0 0 0 0 3.754e-14 452.755 90.3451 50412.7 400 300 254 
-0.00353584 0.00216437 0.000774162 0.000235177 0 0 0 0 0 0 0 0 3.73504e-14 419.608 93.2513 50755.8 400 300 254 
-0.00317458 0.00212054 0.000770302 0.000234004 0 0 0 0 0 0 0 0 3.71642e-14 387.774 96.5549 51097.6 400 300 254 
-0.00284719 0.00207901 0.000766474 0.000232841 0 0 0 0 0 0 0 0 3.69795e-14 357.317 100.435 51437.7 400 300 254 
-0.00255013 0.00203952 0.000762534 0.000231644 0 0 0 0 0 0 0 0 3.67894e-14 328.929 104.677 51771.2 400 300 254 
-0.0022802 0.00200187 0.000758434 0.000230399 0 0 0 0 0 0 0 0 3.65916e-14 302.731 108.784 52097.5 400 300 254 
-0.00203448 0.00196585 0.000754315 0.000229148 0 0 0 0 0 0 0 0 3.63929e-14 277.71 112.587 52425 400 300 254 
-0.00181034 0.00193129 0.000750299 0.000227928 0 0 0 0 0 0 0 0 3.61991e-14 252.99 116.409 52761.3 400 300 254 
-0.00160537 0.00189801 0.000746367 0.000226733 0 0 0 0 0 0 0 0 3.60094e-14 228.745 120.502 53105.7 400 300 254 
-0.00141739 0.00186588 0.000742361 0.000225516 0 0 0 0 0 0 0 0 3.58161e-14 206.082 124.463 53446.8 400 300 254 
-0.00124439 0.00183476 0.000738576 0.000224367 0 0 0 0 0 0 0 0 3.56335e-14 184.359 128.388 53788.9 400 300 254 
-0.00108453 0.00180453 0.000734583 0.000223153 0 0 0 0 0 0 0 0 3.54409e-14 165.62 130.402 54089.5 400 300 254 
-0.000936126 0.00177507 0.00073131 0.000222159 0 0 0 0 0 0 0 0 3.52829e-14 147.613 130.946 54371.4 400 300 254 
-0.000797599 0.0017463 0.000728037 0.000221165 0 0 0 0 0 0 0 0 3.5125e-14 130.448 126.519 54562.1 400 300 254 
-0.000667496 0.00171812 0.000726168 0.000220597 0 0 0 0 0 0 0 0 3.50349e-14 113.164 121.855 54733.9 400 300 254 
-0.000544453 0.00169044 0.000724853 0.000220198 0 0 0 0 0 0 0 0 3.49715e-14 92.0914 117.362 54842.2 400 300 254 
-0.000427182 0.00166319 0.000724245 0.000220013 0 0 0 0 0 0 0 0 3.49421e-14 76.1914 115.682 54926.6 400 300 254 
-0.000314461 0.0016363 0.000723758 0.000219865 0 0 0 0 0 0 0 0 3.49186e-14 53.414 116.071 54998.4 400 300 254 
-0.000205117 0.0016097 0.000722906 0.000219606 0 0 0 0 0 0 0 0 3.48775e-14 38.821 116.296 55035.9 400 300 254 
-9.80148e-05 0.00158334 0.000723237 0.000219707 0 0 0 0 0 0 0 0 3.48935e-14 18.7306 119.474 55124.2 400 300 254 
7.9551e-06 0.00155714 0.000722466 0.000219473 0 0 0 0 0 0 0 0 3.48563e-14 -9.71236 119.144 55123 400 300 254 
-0.0999555 0.0100109 0.000207271 6.29652e-05 0 0 0 0 0 0 0 0 1e-14 7650 -0.0927819 254.001 400 300 254 
-0.0901258 0.00963955 0.000207274 6.29661e-05 0 0 0 0 0 0 0 0 1.00002e-14 7650 -0.275618 254.003 400 300 254 
-0.0812554 0.00924001 0.00020728 6.29681e-05 0 0 0 0 0 0 0 0 1.00005e-14 7650 -0.471584 254.008 400 300 254 
-0.0732523 0.00882742 0.000207291 6.29715e-05 0 0 0 0 0 0 0 0 1.0001e-14 7650 -0.669755 254.017 400 300 254 
-0.0660331 0.00841305 0.000207307 6.29762e-05 0 0 0 0 0 0 0 0 1.00018e-14 7650 -0.865685 254.029 400 300 254 
-0.0595222 0.00800509 0.000207327 6.29824e-05 0 0 0 0 0 0 0 0 1.00028e-14 7650 -1.05636 254.045 400 300 254 
-0.0536511 0.0076094 0.000207352 6.29899e-05 0 0 0 0 0 0 0 0 1.00039e-14 7649.99 -1.23966 254.065 400 300 254 
-0.0483574 0.00722997 0.000207381 6.29986e-05 0 0 0 0 0 0 0 0 1.00053e-14 7649.99 -1.41412 254.088 400 300 254 
-0.043585 0.00686936 0.000207413 6.30084e-05 0 0 0 0 0 0 0 0 1.00069e-14 7649.99 -1.5787 254.114 400 300 254 
-0.039283 0.00652907 0.000207449 6.30193e-05 0 0 0 0 0 0 0 0 1.00086e-14 7649.99 -1.73264 254.148 400 300 254 
-0.0354053 0.00620979 0.000207502 6.30355e-05 0 0 0 0 0 0 0 0 1.00112e-14 7649.89 -1.87048 254.536 400 300 254 
-0.0319103 0.00591157 0.000208018 6.31923e-05 0 0 0 0 0 0 0 0 1.00361e-14 7645.92 -1.78072 275.31 400 300 254 
-0.0287605 0.00563405 0.000214358 6.51181e-05 0 0 0 0 0 0 0 0 1.0342e-14 7525.86 4.01306 1174.83 400 300 254 
-0.0259217 0.00537654 0.000276985 8.41432e-05 0 0 0 0 0 0 0 0 1.33635e-14 6375.39 39.1772 10714.8 400 300 254 
-0.0233635 0.00513815 0.000459017 0.000139441 0 0 0 0 0 0 0 0 2.21459e-14 4030.88 80.7306 28430.2 400 300 254 
-0.021058 0.00491783 0.000665715 0.000202233 0 0 0 0 0 0 0 0 3.21183e-14 2237.4 95.359 39666.8 400 300 254 
-0.0189804 0.00471447 0.000771887 0.000234486 0 0 0 0 0 0 0 0 3.72406e-14 1557.14 103.292 43028.9 400 300 254 
-0.017108 0.00452692 0.000804226 0.00024431 0 0 0 0 0 0 0 0 3.88009e-14 1296.91 106.222 44386.5 400 300 254 
-0.0154206 0.00435402 0.000810124 0.000246101 0 0 0 0 0 0 0 0 3.90854e-14 1176.65 106.876 45049 400 300 254 
-0.0138997 0.00419466 0.000810794 0.000246305 0 0 0 0 0 0 0 0 3.91177e-14 1087.92 107.174 45546.1 400 300 254 
-0.0125289 0.00404772 0.00081023 0.000246134 0 0 0 0 0 0 0 0 3.90906e-14 1008.4 107.281 46012.6 400 300 254 
-0.0112932 0.00391217 0.000808941 0.000245742 0 0 0 0 0 0 0 0 3.90284e-14 935.377 107.387 46462.4 400 300 254 
-0.0101792 0.00378703 0.000807073 0.000245175 0 0 0 0 0 0 0 0 3.89382e-14 868.094 107.623 46898.2 400 300 254 
-0.0091747 0.00367135 0.000804725 0.000244461 0 0 0 0 0 0 0 0 3.88249e-14 805.979 108.084 47321.8 400 300 254 
-0.00826885 0.00356429 0.000801983 0.000243629 0 0 0 0 0 0 0 0 3.86927e-14 748.509 108.833 47734.8 400 300 254 
-0.00745176 0.00346504 0.000798927 0.0002427 0 0 0 0 0 0 0 0 3.85452e-14 695.205 109.911 48138.2 400 300 254 
-0.00671454 0.00337286 0.000795625 0.000241697 0 0 0 0 0 0 0 0 3.83859e-14 645.644 111.34 48532.8 400 300 254 
-0.00604919 0.00328708 0.000792135 0.000240637 0 0 0 0 0 0 0 0 3.82175e-14 599.462 113.127 48918.8 400 300 254 
-0.00544846 0.00320706 0.000788506 0.000239534 0 0 0 0 0 0 0 0 3.80425e-14 556.34 115.271 49296.8 400 300 254 
-0.00490585 0.00313224 0.000784778 0.000238402 0 0 0 0 0 0 0 0 3.78626e-14 516.004 117.771 49666.8 400 300 254 
-0.00441546 0.0030621 0.000780973 0.000237246 0 0 0 0 0 0 0 0 3.7679e-14 478.258 120.608 50029 400 300 254 
-0.003972 0.00299616 0.000777103 0.00023607 0 0 0 0 0 0 0 0 3.74923e-14 442.96 123.719 50383.2 400 300 254 
-0.00357067 0.002934 0.000773192 0.000234882 0 0 0 0 0 0 0 0 3.73036e-14 409.875 127.046 50730.3 400 300 254 
-0.00320714 0.00287523 0.000769289 0.000233697 0 0 0 0 0 0 0 0 3.71153e-14 378.62 130.628 51072.6 400 300 254 
-0.00287749 0.00281948 0.000765423 0.000232522 0 0 0 0 0 0 0 0 3.69288e-14 348.922 134.587 51412.1 400 300 254 
-0.00257818 0.00276645 0.000761559 0.000231348 0 0 0 0 0 0 0 0 3.67424e-14 320.842 138.927 51748.1 400 300 254 
-0.00230602 0.00271585 0.000757649 0.000230161 0 0 0 0 0 0 0 0 3.65537e-14 294.52 143.434 52079.2 400 300 254 
-0.00205808 0.0026674 0.0007537 0.000228961 0 0 0 0 0 0 0 0 3.63632e-14 269.785 147.86 52406.3 400 300 254 
-0.00183173 0.00262087 0.000749767 0.000227766 0 0 0 0 0 0 0 0 3.61735e-14 246.238 152.133 52732 400 300 254 
-0.00162456 0.00257605 0.00074589 0.000226588 0 0 0 0 0 0 0 0 3.59864e-14 223.68 156.252 53056.5 400 300 254 
-0.00143438 0.00253274 0.000742086 0.000225433 0 0 0 0 0 0 0 0 3.58029e-14 202.132 160.081 53377.3 400 300 254 
-0.00125919 0.00249077 0.000738361 0.000224301 0 0 0 0 0 0 0 0 3.56231e-14 181.757 163.267 53687.8 400 300 254 
-0.00109715 0.00244998 0.000734843 0.000223232 0 0 0 0 0 0 0 0 3.54534e-14 162.348 165.734 53985 400 300 254 
-0.000946565 0.00241022 0.000731516 0.000222222 0 0 0 0 0 0 0 0 3.52929e-14 143.87 167.058 54256.3 400 300 254 
-0.000805868 0.00237136 0.000728618 0.000221342 0 0 0 0 0 0 0 0 3.51531e-14 125.898 167.63 54502.9 400 300 254 
-0.000673601 0.00233328 0.000726042 0.000220559 0 0 0 0 0 0 0 0 3.50288e-14 107.959 167.349 54712.1 400 300 254 
-0.0005484 0.00229587 0.000723985 0.000219934 0 0 0 0 0 0 0 0 3.49296e-14 90.5107 167.068 54892.5 400 300 254 
-0.000428977 0.00225903 0.000722289 0.000219419 0 0 0 0 0 0 0 0 3.48477e-14 72.3892 166.973 55038.6 400 300 254 
-0.000314112 0.00222266 0.000720988 0.000219024 0 0 0 0 0 0 0 0 3.4785e-14 55.5125 167.488 55156.2 400 300 254 
-0.000202632 0.00218668 0.000720124 0.000218761 0 0 0 0 0 0 0 0 3.47433e-14 37.5885 168.447 55248.3 400 300 254 
-9.34025e-05 0.002151 0.000719504 0.000218573 0 0 0 0 0 0 0 0 3.47134e-14 20.7481 169.116 55302.4 400 300 254 
1.46843e-05 0.00211556 0.000719406 0.000218543 0 0 0 0 0 0 0 0 3.47086e-14 4.36144 169.975 55335.2 400 300 254 
-0.0999125 0.0125218 0.00020727 6.2965e-05 0 0 0 0 0 0 0 0 1e-14 7650 -0.0726644 254 400 300 254 
-0.0901169 0.0120627 0.000207271 6.29652e-05 0 0 0 0 0 0 0 0 1e-14 7650 -0.217693 254.001 400 300 254 
-0.0812724 0.0115684 0.000207273 6.2966e-05 0 0 0 0 0 0 0 0 1.00002e-14 7650 -0.37702 254.002 400 300 254 
-0.0732889 0.0110576 0.000207278 6.29675e-05 0 0 0 0 0 0 0 0 1.00004e-14 7650 -0.542233 254.006 400 300 254 
-0.0660843 0.0105444 0.000207286 6.29699e-05 0 0 0 0 0 0 0 0 1.00008e-14 7650 -0.709321 254.012 400 300 254 