TITLE = "TEST_PROBLEM"
FILETYPE = FULL
VARIABLES = "x-direction, [m]"  "y-direction, [m]" "rho<sub>N2</sub> [kg/m<sup>3</sup>] "  "rho<sub>O2</sub> [kg/m<sup>3</sup>] "  "rho<sub>NO</sub> [kg/m<sup>3</sup>] "  "rho<sub>N</sub> [kg/m<sup>3</sup>] "  "rho<sub>O</sub> [kg/m<sup>3</sup>] "  "rho<sub>N2p</sub> [kg/m<sup>3</sup>] "  "rho<sub>O2p</sub> [kg/m<sup>3</sup>] "  "rho<sub>NOp</sub> [kg/m<sup>3</sup>] "  "rho<sub>Np</sub> [kg/m<sup>3</sup>] "  "rho<sub>Op</sub> [kg/m<sup>3</sup>] "  "rho<sub>e</sub> [kg/m<sup>3</sup>] "  "u[m/s] "  "v[m/s] "  "T<sub>tra</sub> [K] "  
ZONE
T = "CPU number: 0"
NODES = 7748
ELEMENTS = 7548
F = FEPOINT
ET = QUADRILATERAL
-0.1 1e-08 0.000207298 6.29736e-05 0 0 0 0 0 0 0 0 1.00013e-14 7650 0 254.014 
-0.0900451 1e-08 0.00020734 6.29864e-05 0 0 0 0 0 0 0 0 1.00034e-14 7650 0 254.034 
-0.0810811 1e-08 0.000207408 6.30068e-05 0 0 0 0 0 0 0 0 1.00067e-14 7650 1.38778e-17 254.067 
-0.0730093 1e-08 0.000207489 6.30314e-05 0 0 0 0 0 0 0 0 1.00105e-14 7649.99 0 254.107 
-0.065741 1e-08 0.00020758 6.30591e-05 0 0 0 0 0 0 0 0 1.00149e-14 7649.99 0 254.151 
-0.0591961 1e-08 0.000207678 6.30888e-05 0 0 0 0 0 0 0 0 1.00197e-14 7649.99 0 254.199 
-0.0533027 1e-08 0.00020778 6.31199e-05 0 0 0 0 0 0 0 0 1.00246e-14 7649.98 0 254.248 
-0.0479958 1e-08 0.000207885 6.31518e-05 0 0 0 0 0 0 0 0 1.00296e-14 7649.98 0 254.299 
-0.0432171 1e-08 0.000207991 6.31841e-05 0 0 0 0 0 0 0 0 1.00348e-14 7649.98 1.11022e-16 254.351 
-0.038914 1e-08 0.000208098 6.32164e-05 0 0 0 0 0 0 0 0 1.00399e-14 7649.97 2.22045e-16 254.402 
-0.0350391 1e-08 0.000208203 6.32485e-05 0 8.45449e-16 1.61692e-15 0 0 0 0 0 1.0045e-14 7649.97 0 254.454 
-0.0315498 1e-08 0.000208309 6.32805e-05 0 4.28652e-14 8.18908e-14 0 0 0 0 0 1.00501e-14 7649.96 0 254.535 
-0.0284077 1e-08 0.000208477 6.33316e-05 3.28969e-15 2.08585e-12 3.97992e-12 0 0 0 0 0 1.00583e-14 7649.52 -1.11022e-16 256.056 
-0.0255782 1e-08 0.000209821 6.37397e-05 1.64008e-13 9.97324e-11 1.9004e-10 0 0 0 0 0 1.01231e-14 7634.29 0 324.625 
-0.0230302 1e-08 0.000228816 6.95039e-05 6.57803e-12 4.00326e-09 7.6172e-09 3.39049e-15 2.8936e-15 4.69043e-15 4.79675e-16 0 1.10399e-14 7284.67 1.11022e-16 2357.46 
-0.0207356 1e-08 0.00039503 0.000119861 1.46048e-10 8.90937e-08 1.69188e-07 7.93617e-14 6.77181e-14 1.09759e-13 1.12444e-14 5.73184e-15 1.90684e-14 5383.68 -2.22045e-16 12414.2 
-0.0186692 1e-08 0.000767946 0.000232552 8.7096e-10 5.08672e-07 8.90163e-07 5.13469e-13 4.37082e-13 7.04933e-13 7.07215e-14 3.9784e-14 3.71096e-14 2746.24 0 24412.2 
-0.0168082 1e-08 0.00109318 0.000330299 2.48237e-09 1.3145e-06 2.18784e-06 1.71821e-12 1.44367e-12 2.31952e-12 2.11101e-13 1.1994e-13 5.29187e-14 1466.93 0 28421.9 
-0.0151322 1e-08 0.00121949 0.000367437 5.13169e-09 2.31589e-06 3.72288e-06 4.62306e-12 3.79112e-12 6.08721e-12 4.57839e-13 2.58976e-13 5.92414e-14 1075.36 4.44089e-16 29276 
-0.0136227 1e-08 0.00125148 0.000375843 8.95853e-09 3.41405e-06 5.36859e-06 1.05316e-11 8.4447e-12 1.35867e-11 8.31824e-13 4.68186e-13 6.11925e-14 930.868 -8.88178e-16 29517.9 
-0.0122632 1e-08 0.00126085 0.000377375 1.37582e-08 4.52284e-06 7.01843e-06 2.03496e-11 1.60481e-11 2.58729e-11 1.3201e-12 7.4124e-13 6.22741e-14 851.488 0 29562.4 
-0.0110386 1e-08 0.00126739 0.000378048 1.94113e-08 5.63658e-06 8.66988e-06 3.49171e-11 2.72112e-11 4.39132e-11 1.91966e-12 1.07749e-12 6.34854e-14 784.089 8.88178e-16 29581.8 
-0.00993545 1e-08 0.00127288 0.0003784 2.58195e-08 6.752e-06 1.03192e-05 5.50468e-11 4.25299e-11 6.86346e-11 2.63192e-12 1.47853e-12 6.49547e-14 723.488 0 29592.2 
-0.00894165 1e-08 0.00127744 0.000378481 3.28755e-08 7.86388e-06 1.19592e-05 8.14385e-11 6.25203e-11 1.00825e-10 3.45912e-12 1.94617e-12 6.67255e-14 668.815 8.88178e-16 29594.9 
-0.00804625 1e-08 0.00128119 0.000378327 4.04732e-08 8.96797e-06 1.35843e-05 1.14681e-10 8.76199e-11 1.41139e-10 4.40523e-12 2.48298e-12 6.88343e-14 619.323 0 29590.7 
-0.0072394 1e-08 0.00128425 0.00037798 4.85128e-08 1.00611e-05 1.51904e-05 1.55262e-10 1.18196e-10 1.90108e-10 5.47625e-12 3.09249e-12 7.13125e-14 574.313 0 29580.7 
-0.00651221 1e-08 0.00128673 0.000377475 5.69032e-08 1.11411e-05 1.67746e-05 2.03584e-10 1.54556e-10 2.48171e-10 6.68059e-12 3.77941e-12 7.41873e-14 533.174 8.88178e-16 29566 
-0.00585668 1e-08 0.00128874 0.000376843 6.55638e-08 1.22065e-05 1.83352e-05 2.59993e-10 1.9697e-10 3.15696e-10 8.02929e-12 4.54984e-12 7.7482e-14 495.382 0 29547.6 
-0.00526561 1e-08 0.00129034 0.00037611 7.44254e-08 1.32568e-05 1.98716e-05 3.24808e-10 2.45691e-10 3.93023e-10 9.53653e-12 5.41159e-12 8.12183e-14 460.491 -8.88178e-16 29526.1 
-0.00473248 1e-08 0.00129161 0.000375295 8.3431e-08 1.4292e-05 2.13843e-05 3.98355e-10 3.00984e-10 4.80505e-10 1.12204e-11 6.37463e-12 8.54178e-14 428.12 0 29502.3 
-0.00425143 1e-08 0.00129262 0.000374417 9.25356e-08 1.53129e-05 2.28745e-05 4.81016e-10 3.63158e-10 5.78555e-10 1.31036e-11 7.45167e-12 9.0105e-14 397.945 -8.88178e-16 29476.6 
-0.00381717 1e-08 0.0012934 0.000373487 1.01706e-07 1.63211e-05 2.43447e-05 5.73263e-10 4.32596e-10 6.87698e-10 1.52147e-11 8.65878e-12 9.53094e-14 369.689 8.88178e-16 29449.5 
-0.00342491 1e-08 0.001294 0.000372513 1.10922e-07 1.73186e-05 2.5798e-05 6.75711e-10 5.0979e-10 8.08621e-10 1.75894e-11 1.00161e-11 1.01068e-13 343.115 0 29421.2 
-0.00307034 1e-08 0.00129444 0.000371503 1.20171e-07 1.83084e-05 2.72387e-05 7.89141e-10 5.95366e-10 9.42211e-10 2.02719e-11 1.15486e-11 1.07427e-13 318.025 8.88178e-16 29391.9 
-0.00274956 1e-08 0.00129475 0.000370459 1.29455e-07 1.92938e-05 2.86718e-05 9.14525e-10 6.90091e-10 1.08957e-09 2.33151e-11 1.32862e-11 1.14444e-13 294.246 0 29361.9 
-0.00245903 1e-08 0.00129495 0.000369383 1.3878e-07 2.02788e-05 3.0103e-05 1.05301e-09 7.94868e-10 1.25202e-09 2.67805e-11 1.52634e-11 1.22186e-13 271.634 8.88178e-16 29331.2 
-0.00219557 1e-08 0.00129504 0.000368275 1.4816e-07 2.12676e-05 3.15385e-05 1.20587e-09 9.10693e-10 1.43102e-09 3.07365e-11 1.75187e-11 1.30725e-13 250.067 8.88178e-16 29299.7 
-0.00195627 1e-08 0.00129506 0.000367132 1.57608e-07 2.22643e-05 3.29842e-05 1.37439e-09 1.03857e-09 1.62806e-09 3.52541e-11 2.00918e-11 1.40137e-13 229.443 0 29267.6 
-0.00173849 1e-08 0.00129499 0.000365953 1.67135e-07 2.32724e-05 3.44454e-05 1.55972e-09 1.17938e-09 1.84447e-09 4.04007e-11 2.30199e-11 1.50487e-13 209.673 0 29234.7 
-0.00153985 1e-08 0.00129485 0.000364738 1.76747e-07 2.42943e-05 3.59253e-05 1.76259e-09 1.3337e-09 2.0811e-09 4.62309e-11 2.63328e-11 1.6182e-13 190.684 0 29201.1 
-0.00135815 1e-08 0.00129465 0.000363488 1.86428e-07 2.53303e-05 3.74244e-05 1.98308e-09 1.50157e-09 2.33808e-09 5.27747e-11 3.00461e-11 1.74142e-13 172.408 8.88178e-16 29166.8 
-0.0011914 1e-08 0.00129438 0.000362207 1.96144e-07 2.63777e-05 3.89388e-05 2.22024e-09 1.68228e-09 2.61432e-09 6.0024e-11 3.41539e-11 1.87401e-13 154.787 0 29132 
-0.00103776 1e-08 0.00129407 0.000360907 2.05829e-07 2.743e-05 4.04595e-05 2.47178e-09 1.87404e-09 2.90718e-09 6.79189e-11 3.86208e-11 2.01471e-13 137.763 -8.88178e-16 29097.1 
-0.000895534 1e-08 0.00129371 0.000359602 2.15378e-07 2.84761e-05 4.19703e-05 2.73378e-09 2.07384e-09 3.21214e-09 7.63351e-11 4.33756e-11 2.16133e-13 121.279 0 29062.3 
-0.000763167 1e-08 0.00129334 0.000358317 2.2465e-07 2.95e-05 4.34481e-05 3.00049e-09 2.27728e-09 3.52254e-09 8.50758e-11 4.83067e-11 2.31066e-13 105.275 0 29028.4 
-0.000639199 1e-08 0.00129296 0.000357083 2.33462e-07 3.04803e-05 4.48624e-05 3.26432e-09 2.47854e-09 3.82956e-09 9.38696e-11 5.32611e-11 2.45844e-13 89.6864 0 28996.1 
-0.000522264 1e-08 0.00129261 0.000355936 2.41594e-07 3.13911e-05 4.61759e-05 3.51598e-09 2.67052e-09 4.12244e-09 1.02377e-10 5.80484e-11 2.59946e-13 74.4442 8.88178e-16 28966.4 
-0.000411077 1e-08 0.00129231 0.000354918 2.48798e-07 3.22028e-05 4.73461e-05 3.74496e-09 2.8452e-09 4.38893e-09 1.10205e-10 6.2449e-11 2.72783e-13 59.4712 0 28940.3 
-0.000304414 1e-08 0.0012921 0.000354074 2.54815e-07 3.28839e-05 4.8328e-05 3.9401e-09 2.99405e-09 4.61606e-09 1.16935e-10 6.62292e-11 2.83728e-13 44.6836 -4.44089e-16 28919 
-0.0002011 1e-08 0.00129199 0.000353449 2.59387e-07 3.34037e-05 4.9077e-05 4.09047e-09 3.10875e-09 4.79109e-09 1.22155e-10 6.91588e-11 2.92167e-13 29.9918 4.44089e-16 28903.5 
-0.0001 1e-08 0.00129205 0.000353089 2.62288e-07 3.37347e-05 4.9554e-05 4.18642e-09 3.18194e-09 4.90279e-09 1.25497e-10 7.10343e-11 2.97558e-13 15.3666 0 28894.9 
0 1e-08 0.00129213 0.000352982 2.633e-07 3.38505e-05 4.97209e-05 4.21985e-09 3.20743e-09 4.9417e-09 1.26663e-10 7.16883e-11 2.99439e-13 2.68026 4.71645 28892.5 
-0.100008 0.0025 0.000207286 6.29699e-05 0 0 0 0 0 0 0 0 1.00008e-14 7650 -0.15382 254.008 
-0.0900826 0.00240405 0.000207325 6.29818e-05 0 0 0 0 0 0 0 0 1.00027e-14 7650 -0.417923 254.027 
-0.0811405 0.00230109 0.000207381 6.29986e-05 0 0 0 0 0 0 0 0 1.00054e-14 7650 -0.662533 254.054 
-0.0730844 0.00219496 0.000207448 6.3019e-05 0 0 0 0 0 0 0 0 1.00086e-14 7649.99 -0.915271 254.087 
-0.065827 0.00208854 0.000207524 6.30421e-05 0 0 0 0 0 0 0 0 1.00122e-14 7649.99 -1.1638 254.124 
-0.0592893 0.00198392 0.000207607 6.30673e-05 0 0 0 0 0 0 0 0 1.00163e-14 7649.99 -1.40209 254.164 
-0.0534003 0.00188256 0.000207694 6.30939e-05 0 0 0 0 0 0 0 0 1.00205e-14 7649.98 -1.62704 254.206 
-0.0480956 0.00178547 0.000207785 6.31214e-05 0 0 0 0 0 0 0 0 1.00248e-14 7649.98 -1.83706 254.25 
-0.0433175 0.0016933 0.000207878 6.31495e-05 0 0 0 0 0 0 0 0 1.00293e-14 7649.98 -2.03146 254.295 
-0.0390137 0.00160641 0.000207971 6.31779e-05 0 0 0 0 0 0 0 0 1.00338e-14 7649.97 -2.21006 254.34 
-0.0351373 0.00152496 0.000208064 6.32063e-05 0 8.28739e-16 1.58644e-15 0 0 0 0 0 1.00383e-14 7649.97 -2.37305 254.385 
-0.0316459 0.00144897 0.000208158 6.32348e-05 0 4.18717e-14 8.00772e-14 0 0 0 0 0 1.00428e-14 7649.96 -2.52079 254.46 
-0.0285012 0.00137831 0.000208314 6.32823e-05 3.20244e-15 2.02836e-12 3.87494e-12 0 0 0 0 0 1.00504e-14 7649.53 -2.65175 255.936 
-0.0256688 0.00131282 0.00020962 6.36788e-05 1.58937e-13 9.64939e-11 1.84127e-10 0 0 0 0 0 1.01134e-14 7634.73 -2.70696 322.347 
-0.0231177 0.00125225 0.000228097 6.92857e-05 6.35344e-12 3.85868e-09 7.35383e-09 3.27704e-15 2.79716e-15 4.53459e-15 4.62954e-16 0 1.10052e-14 7294.14 -2.24509 2297.82 
-0.02082 0.00119634 0.00039106 0.000118659 1.41947e-10 8.6355e-08 1.64294e-07 7.725e-14 6.59236e-14 1.06863e-13 1.09224e-14 5.57402e-15 1.88766e-14 5410.79 -5.95746 12266.5 
-0.0187504 0.00114478 0.000760738 0.000230376 8.55498e-10 4.98811e-07 8.74048e-07 5.04606e-13 4.29616e-13 6.93089e-13 6.93967e-14 3.90713e-14 3.67608e-14 2770.76 -8.71147 24284.4 
-0.0168862 0.0010973 0.00108765 0.000328638 2.45374e-09 1.29833e-06 2.1635e-06 1.69684e-12 1.42627e-12 2.29226e-12 2.08411e-13 1.18493e-13 5.26495e-14 1472.78 2.44244 28369.3 
-0.015207 0.00105357 0.00121717 0.000366754 5.09249e-09 2.29853e-06 3.69842e-06 4.5773e-12 3.75573e-12 6.03154e-12 4.53815e-13 2.56845e-13 5.91262e-14 1074.53 16.5334 29250.3 
-0.0136945 0.00101333 0.00125084 0.000375666 8.91301e-09 3.39829e-06 5.34736e-06 1.04538e-11 8.38687e-12 1.3495e-11 8.26822e-13 4.65574e-13 6.11565e-14 928.536 22.4781 29508.5 
-0.0123319 0.00097627 0.00126074 0.000377356 1.37116e-08 4.5094e-06 7.00097e-06 2.0241e-11 1.59698e-11 2.57483e-11 1.31465e-12 7.38423e-13 6.22622e-14 849.736 24.0236 29559.7 
-0.0111043 0.000942136 0.00126746 0.00037808 1.9364e-08 5.62469e-06 8.65487e-06 3.47749e-11 2.71107e-11 4.37534e-11 1.91378e-12 1.07447e-12 6.34805e-14 783.033 24.0266 29581.7 
-0.00999827 0.000910672 0.00127303 0.000378456 2.57734e-08 6.74149e-06 1.03063e-05 5.48738e-11 4.24099e-11 6.84445e-11 2.62579e-12 1.47539e-12 6.49523e-14 722.839 23.6807 29593.6 
-0.00900168 0.000881637 0.00127764 0.00037855 3.28335e-08 7.85489e-06 1.19486e-05 8.12456e-11 6.23891e-11 1.00618e-10 3.4531e-12 1.94312e-12 6.67247e-14 668.339 23.3432 29597.1 
-0.00810356 0.000854812 0.00128143 0.000378407 4.04389e-08 8.96074e-06 1.35763e-05 1.14487e-10 8.74922e-11 1.40938e-10 4.39978e-12 2.48028e-12 6.88357e-14 618.876 23.1052 29593.6 
-0.00729406 0.000829989 0.00128453 0.000378069 4.84898e-08 1.00559e-05 1.51853e-05 1.55095e-10 1.18092e-10 1.89947e-10 5.472e-12 3.09049e-12 7.13177e-14 573.817 22.9856 29584.1 
-0.0065643 0.00080698 0.00128705 0.000377572 5.68952e-08 1.11382e-05 1.67728e-05 2.03478e-10 1.54502e-10 2.48092e-10 6.67827e-12 3.77854e-12 7.41979e-14 532.59 22.9844 29569.8 
-0.00590627 0.000785609 0.00128909 0.000376948 6.55741e-08 1.22061e-05 1.8337e-05 2.59992e-10 1.96998e-10 3.15748e-10 8.02978e-12 4.55059e-12 7.75005e-14 494.699 23.0965 29551.7 
-0.00531276 0.000765716 0.00129073 0.000376221 7.44568e-08 1.3259e-05 1.98773e-05 3.24959e-10 2.45839e-10 3.93264e-10 9.54088e-12 5.41457e-12 8.12471e-14 459.714 23.3162 29530.5 
-0.00477724 0.000747156 0.00129203 0.000375413 8.34859e-08 1.42971e-05 2.13941e-05 3.98715e-10 3.01292e-10 4.80999e-10 1.12298e-11 6.38055e-12 8.54598e-14 427.267 23.6372 29507 
-0.00429386 0.000729795 0.00129306 0.000374538 9.26157e-08 1.5321e-05 2.28885e-05 4.81643e-10 3.63671e-10 5.7937e-10 1.31195e-11 7.46134e-12 9.01634e-14 397.043 24.0534 29481.4 
-0.00385731 0.000713511 0.00129386 0.00037361 1.01813e-07 1.63321e-05 2.43629e-05 5.74221e-10 4.33362e-10 6.88908e-10 1.52388e-11 8.67316e-12 9.53874e-14 368.771 24.5581 29454.4 
-0.0034628 0.000698195 0.00129447 0.000372637 1.11055e-07 1.73326e-05 2.58205e-05 6.77065e-10 5.1086e-10 8.10302e-10 1.76236e-11 1.00363e-11 1.01169e-13 342.221 25.1439 29426.1 
-0.00310602 0.000683747 0.00129491 0.000371625 1.20332e-07 1.83253e-05 2.72653e-05 7.90958e-10 5.9679e-10 9.44438e-10 2.03183e-11 1.15758e-11 1.07554e-13 317.195 25.8026 29396.8 
-0.00278306 0.000670075 0.00129522 0.000370577 1.29642e-07 1.93134e-05 2.87023e-05 9.16868e-10 6.91918e-10 1.09242e-09 2.33761e-11 1.33217e-11 1.14601e-13 293.525 26.525 29366.6 
-0.00249039 0.000657097 0.0012954 0.000369493 1.38992e-07 2.0301e-05 3.01372e-05 1.05594e-09 7.97143e-10 1.25555e-09 2.68585e-11 1.53087e-11 1.22374e-13 271.064 27.3002 29335.6 
-0.0022248 0.00064474 0.00129547 0.000368375 1.48394e-07 2.12921e-05 3.15759e-05 1.20943e-09 9.13452e-10 1.43529e-09 3.08338e-11 1.7575e-11 1.30948e-13 249.687 28.1161 29303.7 
-0.0019834 0.000632936 0.00129545 0.00036722 1.57861e-07 2.22908e-05 3.30244e-05 1.37861e-09 1.04184e-09 1.63311e-09 3.53728e-11 2.01602e-11 1.40395e-13 229.286 28.9593 29271.1 
-0.00176355 0.000621623 0.00129534 0.000366026 1.67405e-07 2.33005e-05 3.44878e-05 1.56461e-09 1.18316e-09 1.8503e-09 4.05424e-11 2.31014e-11 1.50781e-13 209.762 29.8149 29237.6 
-0.00156284 0.000610748 0.00129515 0.000364793 1.77028e-07 2.43236e-05 3.59693e-05 1.76813e-09 1.33799e-09 2.08771e-09 4.63964e-11 2.64278e-11 1.62148e-13 191.031 30.6672 29203.3 
-0.0013791 0.00060026 0.00129488 0.000363523 1.86717e-07 2.53601e-05 3.74693e-05 1.98924e-09 1.50633e-09 2.3454e-09 5.2964e-11 3.01545e-11 1.74502e-13 173.012 31.5002 29168.2 
-0.00121031 0.000590114 0.00129455 0.000362221 1.96435e-07 2.64076e-05 3.89838e-05 2.22694e-09 1.68746e-09 2.62228e-09 6.0236e-11 3.42751e-11 1.87788e-13 155.633 32.2981 29132.6 
-0.00105465 0.000580269 0.00129416 0.000360898 2.06116e-07 2.74595e-05 4.05038e-05 2.47894e-09 1.87957e-09 2.91568e-09 6.81518e-11 3.87537e-11 2.01881e-13 138.819 33.046 29096.8 
-0.000910422 0.000570688 0.00129373 0.000359572 2.15659e-07 2.85047e-05 4.20132e-05 2.74129e-09 2.07965e-09 3.22106e-09 7.65864e-11 4.35187e-11 2.1656e-13 122.502 33.7308 29061.1 
-0.000776058 0.000561337 0.00129328 0.000358265 2.2492e-07 2.95273e-05 4.34892e-05 3.00825e-09 2.28329e-09 3.53177e-09 8.53428e-11 4.84584e-11 2.31503e-13 106.608 34.3411 29026.3 
-0.000650102 0.000552185 0.00129282 0.000357009 2.33718e-07 3.05061e-05 4.49011e-05 3.27224e-09 2.48467e-09 3.83899e-09 9.41494e-11 5.34199e-11 2.46287e-13 91.0643 34.8675 28993.1 
-0.00053119 0.000543203 0.0012924 0.000355841 2.41835e-07 3.1415e-05 4.62119e-05 3.52398e-09 2.67672e-09 4.13198e-09 1.02667e-10 5.82126e-11 2.60391e-13 75.7936 35.3025 28962.6 
-0.000418034 0.000534366 0.00129203 0.000354805 2.49023e-07 3.22248e-05 4.73794e-05 3.75296e-09 2.8514e-09 4.39849e-09 1.10502e-10 6.2617e-11 2.73226e-13 60.7154 35.6401 28935.7 
-0.000309412 0.00052565 0.00129175 0.000353945 2.55024e-07 3.29041e-05 4.83585e-05 3.94804e-09 3.00021e-09 4.62556e-09 1.17236e-10 6.63992e-11 2.84165e-13 45.7458 35.8763 28913.6 
-0.000204149 0.000517032 0.00129159 0.000353305 2.59581e-07 3.34221e-05 4.91049e-05 4.0983e-09 3.11482e-09 4.80048e-09 1.22456e-10 6.93292e-11 2.92595e-13 30.7984 36.0123 28897.5 
-0.000101109 0.000508492 0.00129161 0.000352935 2.6247e-07 3.37516e-05 4.95799e-05 4.19411e-09 3.1879e-09 4.91201e-09 1.25797e-10 7.12035e-11 2.97977e-13 15.8549 36.0649 28888.6 
8.20209e-07 0.000500009 0.00129167 0.000352824 2.63476e-07 3.38668e-05 4.97459e-05 4.22746e-09 3.21334e-09 4.95084e-09 1.26962e-10 7.18567e-11 2.99853e-13 0.156956 36.1016 28886 
-0.100003 0.00500111 0.000207278 6.29673e-05 0 0 0 0 0 0 0 0 1.00004e-14 7650 -0.161529 254.004 
-0.0901086 0.00481129 0.000207298 6.29735e-05 0 0 0 0 0 0 0 0 1.00014e-14 7650 -0.456235 254.014 
-0.0811893 0.00460741 0.00020733 6.29833e-05 0 0 0 0 0 0 0 0 1.00029e-14 7650 -0.735811 254.029 
-0.0731499 0.00439715 0.000207372 6.29958e-05 0 0 0 0 0 0 0 0 1.00049e-14 7649.99 -1.00026 254.049 
-0.0659044 0.0041862 0.000207421 6.30107e-05 0 0 0 0 0 0 0 0 1.00072e-14 7649.99 -1.25065 254.073 
-0.0593748 0.00397871 0.000207476 6.30275e-05 0 0 0 0 0 0 0 0 1.00099e-14 7649.99 -1.48647 254.099 
-0.0534909 0.00377762 0.000207536 6.30459e-05 0 0 0 0 0 0 0 0 1.00128e-14 7649.99 -1.70706 254.128 
-0.0481892 0.00358493 0.000207601 6.30654e-05 0 0 0 0 0 0 0 0 1.0016e-14 7649.99 -1.91196 254.16 
-0.0434123 0.00340194 0.000207668 6.3086e-05 0 0 0 0 0 0 0 0 1.00192e-14 7649.98 -2.10097 254.192 
-0.0391086 0.00322938 0.000207738 6.31072e-05 0 0 0 0 0 0 0 0 1.00226e-14 7649.98 -2.27418 254.225 
-0.0352312 0.00306757 0.000207809 6.31288e-05 0 7.8202e-16 1.50114e-15 0 0 0 0 0 1.0026e-14 7649.98 -2.43188 254.26 
-0.0317381 0.00291654 0.000207882 6.31511e-05 0 3.9153e-14 7.51123e-14 0 0 0 0 0 1.00295e-14 7649.96 -2.57435 254.323 
-0.0285912 0.00277609 0.000208015 6.31914e-05 2.96898e-15 1.87519e-12 3.59529e-12 0 0 0 0 0 1.0036e-14 7649.57 -2.69533 255.683 
-0.0257564 0.00264585 0.000209231 6.35605e-05 1.4576e-13 8.81313e-11 1.68874e-10 0 0 0 0 0 1.00946e-14 7635.88 -2.57595 316.488 
-0.0232025 0.00252537 0.000226415 6.87753e-05 5.78744e-12 3.49732e-09 6.69753e-09 2.98701e-15 2.55101e-15 4.13687e-15 4.20731e-16 0 1.0924e-14 7318.79 1.27589 2144.38 
-0.0209019 0.0024141 0.000381505 0.000115766 1.31757e-10 7.96498e-08 1.52419e-07 7.18324e-14 6.13342e-14 9.94626e-14 1.01152e-14 5.1799e-15 1.84149e-14 5483.81 9.49424 11881.6 
-0.0188294 0.00231148 0.000743666 0.000225221 8.16844e-10 4.74789e-07 8.35133e-07 4.81178e-13 4.10008e-13 6.61962e-13 6.60489e-14 3.7279e-14 3.59345e-14 2839.82 13.9037 23954.6 
-0.0169622 0.00221691 0.00107404 0.000324552 2.37913e-09 1.25756e-06 2.10259e-06 1.63753e-12 1.37823e-12 2.21687e-12 2.01335e-13 1.147e-13 5.19872e-14 1493.99 20.5416 28232.9 
-0.0152801 0.0021298 0.00120976 0.000364555 4.98233e-09 2.25077e-06 3.63113e-06 4.44451e-12 3.65294e-12 5.87003e-12 4.42479e-13 2.5084e-13 5.87584e-14 1077.55 31.9924 29169 
-0.0137646 0.00204958 0.00124663 0.000374438 8.7742e-09 3.34984e-06 5.28139e-06 1.02173e-11 8.20984e-12 1.32158e-11 8.11653e-13 4.57609e-13 6.09374e-14 925.574 37.3374 29457.9 
-0.0123991 0.00197569 0.00125754 0.00037643 1.35579e-08 4.46327e-06 6.93946e-06 1.98957e-11 1.57178e-11 2.53507e-11 1.29693e-12 7.29171e-13 6.20861e-14 846.213 39.1178 29522.2 
-0.0111687 0.00190759 0.00126466 0.000377273 1.91983e-08 5.58021e-06 8.59633e-06 3.43108e-11 2.67777e-11 4.32293e-11 1.89374e-12 1.06403e-12 6.33174e-14 779.891 39.3995 29550.4 
-0.0100599 0.00184479 0.00127047 0.000377722 2.56012e-08 6.69877e-06 1.02506e-05 5.42941e-11 4.19995e-11 6.78013e-11 2.60394e-12 1.46402e-12 6.47955e-14 719.9 39.2408 29566.3 
-0.00906062 0.0017868 0.00127529 0.000377877 3.26626e-08 7.81453e-06 1.18966e-05 8.0573e-11 6.19192e-11 9.98862e-11 3.4303e-12 1.93128e-12 6.65736e-14 665.362 39.0506 29573 
-0.00815985 0.0017332 0.00127928 0.000377788 4.02784e-08 8.92353e-06 1.3529e-05 1.13766e-10 8.69966e-11 1.40172e-10 4.37723e-12 2.46865e-12 6.86919e-14 615.696 38.9717 29572.1 
-0.00734777 0.00168356 0.00128256 0.0003775 4.83494e-08 1.00227e-05 1.51438e-05 1.54391e-10 1.17621e-10 1.89228e-10 5.45125e-12 3.07996e-12 7.11845e-14 570.343 39.0538 29564.9 
-0.00661548 0.00163753 0.00128525 0.000377051 5.67845e-08 1.11097e-05 1.67382e-05 2.02881e-10 1.54122e-10 2.47524e-10 6.66123e-12 3.77019e-12 7.40801e-14 528.787 39.3133 29552.7 
-0.00595498 0.00159474 0.00128745 0.000376471 6.55021e-08 1.21832e-05 1.83104e-05 2.59611e-10 1.96793e-10 3.15463e-10 8.01881e-12 4.54578e-12 7.74037e-14 490.568 39.7539 29536.4 
-0.00535905 0.00155489 0.00128925 0.000375786 7.4432e-08 1.32423e-05 1.98595e-05 3.24926e-10 2.45905e-10 3.93413e-10 9.53883e-12 5.41494e-12 8.11782e-14 455.284 40.3736 29516.8 
-0.00482116 0.00151768 0.00129071 0.000375015 8.35155e-08 1.42871e-05 2.13859e-05 3.99177e-10 3.01742e-10 4.81755e-10 1.12401e-11 6.38805e-12 8.54267e-14 422.585 41.1678 29494.6 
-0.00433544 0.00148284 0.00129187 0.000374175 9.27058e-08 1.53181e-05 2.28906e-05 4.82766e-10 3.64631e-10 5.80927e-10 1.31462e-11 7.47832e-12 9.01746e-14 392.17 42.1302 29470.4 
-0.00389659 0.00145015 0.0012928 0.000373277 1.01968e-07 1.63368e-05 2.43758e-05 5.76189e-10 4.34971e-10 6.91476e-10 1.52867e-11 8.70239e-12 9.54525e-14 363.777 43.2536 29444.4 
-0.00349983 0.00141938 0.00129352 0.00037233 1.1128e-07 1.73451e-05 2.58445e-05 6.80072e-10 5.13267e-10 8.14106e-10 1.76986e-11 1.00811e-11 1.01298e-13 337.184 44.5298 29417 
-0.00314082 0.00139032 0.00129406 0.000371339 1.20628e-07 1.83457e-05 2.73006e-05 7.9521e-10 6.00151e-10 9.49715e-10 2.04269e-11 1.16398e-11 1.07758e-13 312.197 45.9498 29388.3 
-0.00281566 0.00136281 0.00129445 0.000370307 1.3001e-07 1.93418e-05 2.8749e-05 9.22577e-10 6.96397e-10 1.09941e-09 2.35257e-11 1.34092e-11 1.14891e-13 288.647 47.504 29358.6 
-0.00252081 0.00133667 0.00129471 0.000369236 1.39432e-07 2.03373e-05 3.01951e-05 1.06331e-09 8.029e-10 1.26451e-09 2.70574e-11 1.54243e-11 1.22761e-13 266.387 49.1822 29327.9 
-0.00225307 0.00131177 0.00129483 0.000368125 1.48903e-07 2.13361e-05 3.16449e-05 1.21866e-09 9.20638e-10 1.44643e-09 3.10903e-11 1.77235e-11 1.31442e-13 245.286 50.9729 29296.2 
-0.00200953 0.00128796 0.00129485 0.000366973 1.58437e-07 2.23421e-05 3.3104e-05 1.38987e-09 1.05058e-09 1.64662e-09 3.56951e-11 2.03462e-11 1.41005e-13 225.226 52.864 29263.4 
-0.00178755 0.00126513 0.00129476 0.000365778 1.68041e-07 2.33588e-05 3.45772e-05 1.57801e-09 1.19355e-09 1.86632e-09 4.09378e-11 2.33288e-11 1.51513e-13 206.099 54.8418 29229.7 
-0.00158474 0.00124317 0.00129458 0.000364541 1.77718e-07 2.4388e-05 3.60674e-05 1.78373e-09 1.35006e-09 2.1063e-09 4.68702e-11 2.66997e-11 1.63004e-13 187.805 56.8909 29195.1 
-0.0013989 0.00122197 0.00129431 0.000363265 1.87451e-07 2.54299e-05 3.75748e-05 2.00698e-09 1.52007e-09 2.36651e-09 5.35189e-11 3.04722e-11 1.75479e-13 170.249 58.9935 29159.6 
-0.00122804 0.00120145 0.00129397 0.000361955 1.97202e-07 2.64815e-05 3.90953e-05 2.2467e-09 1.70274e-09 2.64576e-09 6.08713e-11 3.46379e-11 1.8888e-13 153.34 61.1286 29123.4 
-0.0010703 0.00118153 0.00129356 0.000360623 2.06904e-07 2.75362e-05 4.06192e-05 2.50048e-09 1.89623e-09 2.94127e-09 6.88629e-11 3.9159e-11 2.03073e-13 136.991 63.2709 29086.9 
-0.000924012 0.00116214 0.0012931 0.000359288 2.16454e-07 2.85828e-05 4.21305e-05 2.76429e-09 2.09744e-09 3.24839e-09 7.7365e-11 4.39617e-11 2.17834e-13 121.117 65.3907 29050.5 
-0.000787596 0.0011432 0.00129262 0.000357972 2.25709e-07 2.96053e-05 4.36062e-05 3.03233e-09 2.3019e-09 3.56038e-09 8.61774e-11 4.89325e-11 2.32839e-13 105.63 67.4523 29015 
-0.000659596 0.00112466 0.00129213 0.000356707 2.34488e-07 3.05825e-05 4.50159e-05 3.29696e-09 2.50379e-09 3.8684e-09 9.50263e-11 5.39172e-11 2.47659e-13 90.4482 69.4142 28981.2 
-0.000538649 0.00110645 0.00129167 0.000355532 2.42576e-07 3.14887e-05 4.63227e-05 3.54894e-09 2.69603e-09 4.1617e-09 1.03571e-10 5.87248e-11 2.61777e-13 75.4858 71.229 28950 
-0.000423466 0.00108854 0.00129127 0.000354489 2.49728e-07 3.22948e-05 4.74849e-05 3.7778e-09 2.87062e-09 4.42811e-09 1.1142e-10 6.31364e-11 2.74604e-13 60.6576 72.8443 28922.5 
-0.000312825 0.00107086 0.00129096 0.000353623 2.5569e-07 3.29701e-05 4.84581e-05 3.97249e-09 3.01914e-09 4.65476e-09 1.18156e-10 6.69191e-11 2.85521e-13 45.8775 74.2051 28900 
-0.000205552 0.00105338 0.00129076 0.000352978 2.60211e-07 3.34842e-05 4.91989e-05 4.12222e-09 3.13336e-09 4.82909e-09 1.2337e-10 6.98451e-11 2.93921e-13 31.0596 75.2577 28883.4 
-0.000100512 0.00103605 0.00129075 0.000352603 2.63071e-07 3.38106e-05 4.96694e-05 4.21755e-09 3.20608e-09 4.94008e-09 1.26702e-10 7.17142e-11 2.99276e-13 16.1921 75.9547 28874.1 
3.4056e-06 0.00101884 0.0012908 0.000352489 2.64067e-07 3.39246e-05 4.98336e-05 4.2507e-09 3.23136e-09 4.97868e-09 1.27862e-10 7.23648e-11 3.0114e-13 0.548834 76.2651 28871.4 
-0.0999856 0.0075044 0.000207273 6.29658e-05 0 0 0 0 0 0 0 0 1.00001e-14 7650 -0.122524 254.001 
-0.0901231 0.00722277 0.000207281 6.29683e-05 0 0 0 0 0 0 0 0 1.00005e-14 7650 -0.357765 254.005 
-0.0812277 0.00692003 0.000207296 6.2973e-05 0 0 0 0 0 0 0 0 1.00013e-14 7650 -0.598862 254.012 
-0.0732059 0.00660762 0.000207319 6.29798e-05 0 0 0 0 0 0 0 0 1.00024e-14 7650 -0.834651 254.023 
-0.0659731 0.00629401 0.000207348 6.29885e-05 0 0 0 0 0 0 0 0 1.00037e-14 7650 -1.06213 254.037 
-0.0594525 0.00598542 0.000207382 6.29991e-05 0 0 0 0 0 0 0 0 1.00054e-14 7649.99 -1.27938 254.054 
-0.0535745 0.00568622 0.000207422 6.30111e-05 0 0 0 0 0 0 0 0 1.00073e-14 7649.99 -1.48504 254.073 
-0.0482765 0.00539942 0.000207466 6.30245e-05 0 0 0 0 0 0 0 0 1.00095e-14 7649.99 -1.67822 254.094 
-0.0435015 0.00512695 0.000207514 6.3039e-05 0 0 0 0 0 0 0 0 1.00118e-14 7649.99 -1.85835 254.117 
-0.0391983 0.00486992 0.000207564 6.30544e-05 0 0 0 0 0 0 0 0 1.00142e-14 7649.99 -2.02518 254.141 
-0.0353206 0.00462884 0.000207617 6.30706e-05 0 7.15668e-16 1.37982e-15 0 0 0 0 0 1.00168e-14 7649.98 -2.17867 254.167 
-0.0318263 0.00440374 0.000207673 6.30876e-05 0 3.54138e-14 6.82667e-14 0 0 0 0 0 1.00195e-14 7649.97 -2.31868 254.219 
-0.0286777 0.00419433 0.000207785 6.31213e-05 2.65796e-15 1.67241e-12 3.22421e-12 0 0 0 0 0 1.00249e-14 7649.61 -2.43341 255.43 
-0.0258407 0.00400009 0.000208893 6.34578e-05 1.28895e-13 7.75274e-11 1.49498e-10 0 0 0 0 0 1.00783e-14 7637.38 -2.13396 309.092 
-0.0232845 0.00382034 0.000224498 6.81936e-05 5.09075e-12 3.05774e-09 5.89853e-09 2.62478e-15 2.24422e-15 3.64094e-15 3.68882e-16 0 1.08315e-14 7350.48 5.4134 1950.21 
-0.0209813 0.00365427 0.000370126 0.000112322 1.19202e-10 7.15554e-08 1.38104e-07 6.49472e-14 5.55207e-14 9.00809e-14 9.11725e-15 4.69352e-15 1.78651e-14 5582.75 29.9063 11378.8 
-0.0189061 0.00350104 0.000724083 0.00021931 7.68759e-10 4.45923e-07 7.88534e-07 4.50465e-13 3.84465e-13 6.21295e-13 6.18601e-14 3.50456e-14 3.49863e-14 2938.15 48.7737 23527.1 
-0.0170362 0.00335979 0.00105896 0.00032003 2.28308e-09 1.20742e-06 2.02798e-06 1.55665e-12 1.3131e-12 2.11415e-12 1.92183e-13 1.09812e-13 5.12521e-14 1529.76 54.1084 28071.3 
-0.0153513 0.00322963 0.00120098 0.000361957 4.83192e-09 2.18836e-06 3.54327e-06 4.25632e-12 3.50749e-12 5.64047e-12 4.26996e-13 2.42645e-13 5.83205e-14 1088.8 62.5258 29068.4 
-0.0138331 0.00310971 0.00124088 0.000372763 8.57403e-09 3.28217e-06 5.189e-06 9.86949e-12 7.94922e-12 1.28036e-11 7.89835e-13 4.46134e-13 6.06367e-14 926.888 66.1781 29385.4 
-0.0124648 0.00299919 0.00125264 0.000375013 1.33277e-08 4.39568e-06 6.84893e-06 1.93746e-11 1.53364e-11 2.47478e-11 1.27051e-12 7.15341e-13 6.18174e-14 844.465 67.2795 29462.1 
-0.0112317 0.00289729 0.00126011 0.00037596 1.8947e-08 5.51347e-06 8.50808e-06 3.36051e-11 2.62701e-11 4.24292e-11 1.86346e-12 1.04821e-12 6.30561e-14 776.911 67.1715 29496.8 
-0.0101203 0.00280326 0.00126619 0.000376488 2.53386e-08 6.63375e-06 1.01655e-05 5.3411e-11 4.13731e-11 6.68186e-11 2.57071e-12 1.44669e-12 6.4538e-14 716.067 66.6509 29517.6 
-0.00911834 0.0027164 0.00127125 0.000376711 3.24e-08 7.75227e-06 1.18159e-05 7.95448e-11 6.12002e-11 9.87649e-11 3.39537e-12 1.91312e-12 6.63207e-14 660.785 66.1098 29528.4 
-0.008215 0.00263605 0.00127546 0.000376687 4.00286e-08 8.86516e-06 1.34542e-05 1.12655e-10 8.62322e-11 1.3899e-10 4.34228e-12 2.45061e-12 6.84467e-14 610.426 65.7147 29531 
-0.00740038 0.00256162 0.00127897 0.000376461 4.81256e-08 9.96934e-06 1.50764e-05 1.5329e-10 1.16882e-10 1.88097e-10 5.41844e-12 3.06326e-12 7.0952e-14 564.423 65.5357 29526.9 
-0.00666561 0.00249253 0.00128188 0.000376069 5.65999e-08 1.10625e-05 1.66797e-05 2.01915e-10 1.53504e-10 2.46595e-10 6.63329e-12 3.7564e-12 7.38669e-14 522.269 65.6016 29517.5 
-0.00600267 0.00242827 0.00128428 0.000375544 6.53693e-08 1.21431e-05 1.82622e-05 2.58938e-10 1.96412e-10 3.14921e-10 7.9991e-12 4.53684e-12 7.72181e-14 483.514 65.9218 29503.6 
-0.00540433 0.00236838 0.00128627 0.000374908 7.43627e-08 1.32103e-05 1.9823e-05 3.24733e-10 2.45904e-10 3.93479e-10 9.53152e-12 5.41321e-12 8.10301e-14 447.764 66.4959 29486.2 
-0.00486408 0.00231242 0.00128791 0.000374183 8.35203e-08 1.4264e-05 2.13622e-05 3.99683e-10 3.02287e-10 4.82684e-10 1.12502e-11 6.39646e-12 8.53277e-14 414.677 67.3178 29465.9 
-0.00437603 0.00225999 0.00128925 0.000373384 9.2794e-08 1.53047e-05 2.28807e-05 4.84219e-10 3.65908e-10 5.83006e-10 1.318e-11 7.50039e-12 9.01379e-14 383.957 68.3782 29443.2 
-0.00393488 0.00221075 0.00129034 0.000372524 1.02147e-07 1.63336e-05 2.43806e-05 5.78864e-10 4.3719e-10 6.95024e-10 1.53516e-11 8.7424e-12 9.54929e-14 355.346 69.6659 29418.7 
-0.00353584 0.00216437 0.00129121 0.00037161 1.11556e-07 1.73527e-05 2.58647e-05 6.84273e-10 5.16659e-10 8.19475e-10 1.78035e-11 1.01441e-11 1.01432e-13 328.623 71.168 29392.5 
-0.00317458 0.00212054 0.00129189 0.000370648 1.21007e-07 1.83646e-05 2.73369e-05 8.01265e-10 6.04968e-10 9.57282e-10 2.05824e-11 1.17319e-11 1.08004e-13 303.592 72.8712 29364.9 