TITLE = "TEST_PROBLEM"
FILETYPE = FULL
VARIABLES = "x-direction, [m]"  "y-direction, [m]" "rho<sub>N2</sub> [kg/m<sup>3</sup>] "  "rho<sub>O2</sub> [kg/m<sup>3</sup>] "  "rho<sub>NO</sub> [kg/m<sup>3</sup>] "  "rho<sub>N</sub> [kg/m<sup>3</sup>] "  "rho<sub>O</sub> [kg/m<sup>3</sup>] "  "rho<sub>N2p</sub> [kg/m<sup>3</sup>] "  "rho<sub>O2p</sub> [kg/m<sup>3</sup>] "  "rho<sub>NOp</sub> [kg/m<sup>3</sup>] "  "rho<sub>Np</sub> [kg/m<sup>3</sup>] "  "rho<sub>Op</sub> [kg/m<sup>3</sup>] "  "rho<sub>e</sub> [kg/m<sup>3</sup>] "  "u[m/s] "  "v[m/s] "  "T<sub>tra</sub> [K] "  "T<sub>e</sub> [K] "  
ZONE
T = "CPU number: 0"
NODES = 7748
ELEMENTS = 7548
F = FEPOINT
ET = QUADRILATERAL
-0.1 1e-08 0.000207307 6.29764e-05 0 0 0 0 0 0 0 0 1.00018e-14 7650 1.96537e-13 254.018 254 
-0.0900451 1e-08 0.000207363 6.29933e-05 0 0 0 0 0 0 0 0 1.00045e-14 7649.99 9.52363e-13 254.046 254 
-0.0810811 1e-08 0.000207454 6.30208e-05 0 0 0 0 0 0 0 0 1.00089e-14 7649.99 3.18619e-12 254.09 254.001 
-0.0730093 1e-08 0.000207568 6.30554e-05 0 0 0 0 0 0 0 0 1.00144e-14 7649.98 9.08928e-12 254.146 254.001 
-0.065741 1e-08 0.000207703 6.30964e-05 0 0 0 0 0 0 0 0 1.00209e-14 7649.97 2.25015e-11 254.212 254.002 
-0.0591961 1e-08 0.000207856 6.31431e-05 0 0 0 0 0 0 0 0 1.00283e-14 7649.96 4.72748e-11 254.288 254.003 
-0.0533027 1e-08 0.000208025 6.31945e-05 0 0 0 0 0 0 0 0 1.00364e-14 7649.94 8.94141e-11 254.371 254.004 
-0.0479958 1e-08 0.000208207 6.32497e-05 0 0 0 0 0 0 0 0 1.00452e-14 7649.93 1.55864e-10 254.46 254.005 
-0.0432171 1e-08 0.000208399 6.33081e-05 0 0 0 0 0 0 0 0 1.00545e-14 7649.92 2.52352e-10 254.554 254.007 
-0.038914 1e-08 0.000208599 6.33687e-05 0 0 0 0 0 0 0 0 1.00641e-14 7649.9 3.67023e-10 254.651 254.008 
-0.0350391 1e-08 0.000208804 6.34309e-05 0 0 0 0 0 0 0 0 1.0074e-14 7649.89 -1.41099e-10 254.753 254.009 
-0.0315498 1e-08 0.000209014 6.34948e-05 0 0 0 0 0 0 0 0 1.00841e-14 7649.85 -2.09431e-08 254.911 254.013 
-0.0284077 1e-08 0.000209328 6.35902e-05 0 0 0 0 0 0 0 0 1.00993e-14 7649.07 -4.21293e-07 257.716 254.123 
-0.0255782 1e-08 0.000211224 6.41661e-05 0 0 0 0 0 0 0 0 1.01908e-14 7623.36 8.22185e-06 378.088 258.848 
-0.0230302 1e-08 0.000237719 7.2215e-05 0 0 0 0 0 0 0 0 1.14691e-14 7115.81 0.000178442 3344.67 394.348 
-0.0207356 1e-08 0.000431843 0.000131186 0 0 0 0 0 0 0 0 2.08348e-14 4998.65 -6.1385e-05 14250.1 1376.64 
-0.0186692 1e-08 0.000810302 0.000246156 0 0 0 0 0 0 0 0 3.9094e-14 2437.98 -9.9893e-05 25434.1 3693.13 
-0.0168082 1e-08 0.00110441 0.000335502 0 0 0 0 0 0 0 0 5.32839e-14 1337.86 0.000394599 28664.6 6841.61 
-0.0151322 1e-08 0.00121581 0.000369341 0 0 0 0 0 0 0 0 5.86581e-14 985.836 0.000389649 29448.3 10590 
-0.0136227 1e-08 0.00124597 0.000378503 0 0 0 0 0 0 0 0 6.01133e-14 849.28 0.000514119 29723.4 14542.4 
-0.0122632 1e-08 0.00125708 0.000381879 0 0 0 0 0 0 0 0 6.06494e-14 769.534 0.000708347 29831.9 17975.2 
-0.0110386 1e-08 0.00126511 0.000384317 0 0 0 0 0 0 0 0 6.10367e-14 702.65 0.000917849 29913 20756.6 
-0.00993545 1e-08 0.00127169 0.000386316 0 0 0 0 0 0 0 0 6.13541e-14 643.634 0.00112991 29981.2 22942.6 
-0.00894165 1e-08 0.00127713 0.000387971 0 0 0 0 0 0 0 0 6.16169e-14 591.128 0.00134108 30038.7 24630.5 
-0.00804625 1e-08 0.00128166 0.000389346 0 0 0 0 0 0 0 0 6.18354e-14 544.131 0.00154848 30087.5 25921.2 
-0.0072394 1e-08 0.00128544 0.000390495 0 0 0 0 0 0 0 0 6.20177e-14 501.817 0.00174714 30128.9 26904 
-0.00651221 1e-08 0.00128861 0.000391458 0 0 0 0 0 0 0 0 6.21707e-14 463.506 0.00193011 30164.2 27652.3 
-0.00585668 1e-08 0.00129128 0.000392269 0 0 0 0 0 0 0 0 6.22996e-14 428.628 0.00208899 30194.5 28223.4 
-0.00526561 1e-08 0.00129354 0.000392956 0 0 0 0 0 0 0 0 6.24087e-14 396.707 0.00221441 30220.7 28661.3 
-0.00473248 1e-08 0.00129547 0.000393541 0 0 0 0 0 0 0 0 6.25016e-14 367.338 0.00229653 30243.5 28999.1 
-0.00425143 1e-08 0.00129712 0.000394042 0 0 0 0 0 0 0 0 6.25811e-14 340.176 0.00232538 30263.6 29261.5 
-0.00381717 1e-08 0.00129854 0.000394473 0 0 0 0 0 0 0 0 6.26496e-14 314.93 0.00229117 30281.6 29467.1 
-0.00342491 1e-08 0.00129976 0.000394846 0 0 0 0 0 0 0 0 6.27088e-14 291.349 0.00218449 30297.8 29629.7 
-0.00307034 1e-08 0.00130083 0.00039517 0 0 0 0 0 0 0 0 6.27603e-14 269.222 0.00199638 30312.9 29759.5 
-0.00274956 1e-08 0.00130176 0.000395453 0 0 0 0 0 0 0 0 6.28053e-14 248.37 0.00171828 30327 29864.3 
-0.00245903 1e-08 0.00130258 0.000395702 0 0 0 0 0 0 0 0 6.28448e-14 228.64 0.00134196 30340.5 29949.9 
-0.00219557 1e-08 0.0013033 0.000395921 0 0 0 0 0 0 0 0 6.28795e-14 209.909 0.000859513 30353.6 30020.6 
-0.00195627 1e-08 0.00130394 0.000396114 0 0 0 0 0 0 0 0 6.29102e-14 192.069 0.000263503 30366.5 30079.9 
-0.00173849 1e-08 0.0013045 0.000396284 0 0 0 0 0 0 0 0 6.29372e-14 175.035 -0.000452626 30379.5 30130.2 
-0.00153985 1e-08 0.00130499 0.000396433 0 0 0 0 0 0 0 0 6.29609e-14 158.734 -0.0012937 30392.5 30173.5 
-0.00135815 1e-08 0.00130542 0.000396564 0 0 0 0 0 0 0 0 6.29817e-14 143.105 -0.00226152 30405.6 30211.3 
-0.0011914 1e-08 0.0013058 0.000396679 0 0 0 0 0 0 0 0 6.29999e-14 128.097 -0.00335319 30419 30244.6 
-0.00103776 1e-08 0.00130613 0.000396778 0 0 0 0 0 0 0 0 6.30157e-14 113.661 -0.00455909 30432.4 30274.3 
-0.000895534 1e-08 0.00130641 0.000396865 0 0 0 0 0 0 0 0 6.30294e-14 99.7514 -0.00586084 30445.8 30300.8 
-0.000763167 1e-08 0.00130666 0.000396941 0 0 0 0 0 0 0 0 6.30415e-14 86.3202 -0.00722959 30459.1 30324.6 
-0.000639199 1e-08 0.00130689 0.000397009 0 0 0 0 0 0 0 0 6.30523e-14 73.3157 -0.00862488 30471.9 30345.6 
-0.000522264 1e-08 0.00130709 0.000397072 0 0 0 0 0 0 0 0 6.30624e-14 60.6804 -0.00999453 30484.1 30364.3 
-0.000411077 1e-08 0.0013073 0.000397134 0 0 0 0 0 0 0 0 6.30721e-14 48.3496 -0.0112754 30495.2 30379.7 
-0.000304414 1e-08 0.0013075 0.000397197 0 0 0 0 0 0 0 0 6.30821e-14 36.2504 -0.0123967 30505 30392.7 
-0.0002011 1e-08 0.00130772 0.000397263 0 0 0 0 0 0 0 0 6.30927e-14 24.3013 -0.0132826 30513.1 30402.3 
-0.0001 1e-08 0.00130798 0.000397343 0 0 0 0 0 0 0 0 6.31053e-14 12.4634 -0.0138632 30519.3 30407.8 
0 1e-08 0.00130813 0.000397388 0 0 0 0 0 0 0 0 6.31125e-14 2.17578 2.2216 30522.1 30409.6 
-0.100008 0.0025 0.000207294 6.29722e-05 0 0 0 0 0 0 0 0 1.00011e-14 7650 -0.149507 254.012 254 
-0.0900826 0.00240405 0.000207353 6.29902e-05 0 0 0 0 0 0 0 0 1.0004e-14 7649.99 -0.393634 254.041 254 
-0.0811405 0.00230109 0.000207442 6.30174e-05 0 0 0 0 0 0 0 0 1.00083e-14 7649.99 -0.603524 254.084 254.001 
-0.0730844 0.00219496 0.000207557 6.30522e-05 0 0 0 0 0 0 0 0 1.00138e-14 7649.98 -0.822668 254.14 254.001 
-0.065827 0.00208854 0.000207693 6.30935e-05 0 0 0 0 0 0 0 0 1.00204e-14 7649.97 -1.04335 254.206 254.002 
-0.0592893 0.00198392 0.000207847 6.31403e-05 0 0 0 0 0 0 0 0 1.00278e-14 7649.96 -1.26031 254.281 254.003 
-0.0534003 0.00188256 0.000208015 6.31914e-05 0 0 0 0 0 0 0 0 1.0036e-14 7649.95 -1.46986 254.363 254.004 
-0.0480956 0.00178547 0.000208195 6.32461e-05 0 0 0 0 0 0 0 0 1.00446e-14 7649.94 -1.66944 254.451 254.005 
-0.0433175 0.0016933 0.000208383 6.33032e-05 0 0 0 0 0 0 0 0 1.00537e-14 7649.93 -1.85731 254.542 254.006 
-0.0390137 0.00160641 0.000208577 6.33622e-05 0 0 0 0 0 0 0 0 1.00631e-14 7649.92 -2.03238 254.636 254.008 
-0.0351373 0.00152496 0.000208775 6.34222e-05 0 0 0 0 0 0 0 0 1.00726e-14 7649.9 -2.19404 254.734 254.009 
-0.0316459 0.00144897 0.000208977 6.34835e-05 0 0 0 0 0 0 0 0 1.00823e-14 7649.87 -2.34212 254.885 254.013 
-0.0285012 0.00137831 0.00020928 6.35756e-05 0 0 0 0 0 0 0 0 1.0097e-14 7649.12 -2.47578 257.556 254.117 
-0.0256688 0.00131282 0.000211179 6.41524e-05 0 0 0 0 0 0 0 0 1.01886e-14 7624.55 -2.45265 372.078 258.603 
-0.0231177 0.00125225 0.000237068 7.20172e-05 0 0 0 0 0 0 0 0 1.14377e-14 7135.28 2.07833 3228.53 388.099 
-0.02082 0.00119634 0.000427913 0.000129992 0 0 0 0 0 0 0 0 2.06452e-14 5042.91 8.03376 14028.6 1347.98 
-0.0187504 0.00114478 0.000804248 0.000244316 0 0 0 0 0 0 0 0 3.8802e-14 2473.83 9.96854 25293.9 3638.29 
-0.0168862 0.0010973 0.00110096 0.000334452 0 0 0 0 0 0 0 0 5.31171e-14 1351.35 16.0441 28617.8 6769.5 
-0.015207 0.00105357 0.00121488 0.000369061 0 0 0 0 0 0 0 0 5.86136e-14 991.592 23.1574 29427.8 10506.7 
-0.0136945 0.00101333 0.001246 0.000378512 0 0 0 0 0 0 0 0 6.01147e-14 852.549 24.8482 29716.3 14462.4 
-0.0123319 0.00097627 0.00125727 0.000381938 0 0 0 0 0 0 0 0 6.06587e-14 772.401 24.5314 29829.4 17907.3 
-0.0111043 0.000942136 0.00126531 0.000384378 0 0 0 0 0 0 0 0 6.10462e-14 705.365 23.676 29912.2 20701 
-0.00999827 0.000910672 0.00127187 0.000386372 0 0 0 0 0 0 0 0 6.1363e-14 646.116 22.8418 29981.2 22898.3 
-0.00900168 0.000881637 0.00127731 0.000388023 0 0 0 0 0 0 0 0 6.16253e-14 593.31 22.1545 30039.3 24595.8 
-0.00810356 0.000854812 0.00128183 0.000389397 0 0 0 0 0 0 0 0 6.18435e-14 545.987 21.6223 30088.5 25894.4 
-0.00729406 0.000829989 0.00128561 0.000390545 0 0 0 0 0 0 0 0 6.20258e-14 503.353 21.2316 30130.3 26883.5 
-0.0065643 0.00080698 0.00128878 0.000391509 0 0 0 0 0 0 0 0 6.21788e-14 464.744 20.968 30165.9 27636.6 
-0.00590627 0.000785609 0.00129145 0.000392321 0 0 0 0 0 0 0 0 6.23078e-14 429.601 20.8199 30196.4 28211.4 
-0.00531276 0.000765716 0.00129372 0.000393009 0 0 0 0 0 0 0 0 6.24171e-14 397.455 20.7778 30222.7 28652 
-0.00477724 0.000747156 0.00129564 0.000393594 0 0 0 0 0 0 0 0 6.251e-14 367.906 20.8341 30245.6 28991.8 
-0.00429386 0.000729795 0.00129729 0.000394093 0 0 0 0 0 0 0 0 6.25893e-14 340.612 20.9814 30265.8 29255.9 
-0.00385731 0.000713511 0.0012987 0.000394521 0 0 0 0 0 0 0 0 6.26573e-14 315.284 21.2129 30283.7 29462.6 
-0.0034628 0.000698195 0.00129991 0.000394889 0 0 0 0 0 0 0 0 6.27157e-14 291.674 21.5212 30299.9 29626.1 
-0.00310602 0.000683747 0.00130095 0.000395206 0 0 0 0 0 0 0 0 6.27661e-14 269.571 21.898 30314.7 29756.5 
-0.00278306 0.000670075 0.00130185 0.00039548 0 0 0 0 0 0 0 0 6.28095e-14 248.794 22.334 30328.5 29861.8 
-0.00249039 0.000657097 0.00130263 0.000395716 0 0 0 0 0 0 0 0 6.2847e-14 229.188 22.8183 30341.6 29947.7 
-0.0022248 0.00064474 0.0013033 0.000395919 0 0 0 0 0 0 0 0 6.28792e-14 210.622 23.338 30354.1 30018.6 
-0.0019834 0.000632936 0.00130387 0.000396093 0 0 0 0 0 0 0 0 6.29068e-14 192.983 23.879 30366.4 30078 
-0.00176355 0.000621623 0.00130436 0.000396241 0 0 0 0 0 0 0 0 6.29303e-14 176.172 24.425 30378.6 30128.4 
-0.00156284 0.000610748 0.00130477 0.000396365 0 0 0 0 0 0 0 0 6.29501e-14 160.104 24.9589 30390.8 30171.7 
-0.0013791 0.00060026 0.00130511 0.000396468 0 0 0 0 0 0 0 0 6.29665e-14 144.704 25.463 30403 30209.5 
-0.00121031 0.000590114 0.00130539 0.000396553 0 0 0 0 0 0 0 0 6.298e-14 129.901 25.9202 30415.3 30242.7 
-0.00105465 0.000580269 0.00130561 0.000396622 0 0 0 0 0 0 0 0 6.29908e-14 115.633 26.3152 30427.7 30272.3 
-0.000910422 0.000570688 0.00130579 0.000396676 0 0 0 0 0 0 0 0 6.29995e-14 101.836 26.6355 30440 30298.7 
-0.000776058 0.000561337 0.00130593 0.00039672 0 0 0 0 0 0 0 0 6.30064e-14 88.4491 26.8728 30452.1 30322.5 
-0.000650102 0.000552185 0.00130605 0.000396756 0 0 0 0 0 0 0 0 6.30122e-14 75.4098 27.0236 30463.9 30343.3 
-0.00053119 0.000543203 0.00130616 0.000396789 0 0 0 0 0 0 0 0 6.30174e-14 62.6528 27.0895 30475 30362 
-0.000418034 0.000534366 0.00130627 0.000396822 0 0 0 0 0 0 0 0 6.30226e-14 50.1094 27.0772 30485.1 30377.3 
-0.000309412 0.00052565 0.00130639 0.000396859 0 0 0 0 0 0 0 0 6.30285e-14 37.7068 26.9989 30494.1 30390.3 
-0.000204149 0.000517032 0.00130654 0.000396904 0 0 0 0 0 0 0 0 6.30356e-14 25.3683 26.8754 30501.4 30399.8 
-0.000101109 0.000508492 0.00130675 0.000396966 0 0 0 0 0 0 0 0 6.30456e-14 13.0688 26.7461 30507.2 30405.2 
8.20209e-07 0.000500009 0.00130687 0.000397005 0 0 0 0 0 0 0 0 6.30517e-14 0.119835 26.7266 30509.7 30407.8 
-0.100003 0.00500111 0.000207281 6.29682e-05 0 0 0 0 0 0 0 0 1.00005e-14 7650 -0.185553 254.005 254 
-0.0901086 0.00481129 0.000207312 6.29776e-05 0 0 0 0 0 0 0 0 1.0002e-14 7650 -0.538219 254.02 254 
-0.0811893 0.00460741 0.000207365 6.29938e-05 0 0 0 0 0 0 0 0 1.00046e-14 7649.99 -0.893576 254.046 254 
-0.0731499 0.00439715 0.000207438 6.3016e-05 0 0 0 0 0 0 0 0 1.00081e-14 7649.99 -1.23588 254.081 254.001 
-0.0659044 0.0041862 0.000207528 6.30434e-05 0 0 0 0 0 0 0 0 1.00125e-14 7649.99 -1.56053 254.125 254.001 
-0.0593748 0.00397871 0.000207633 6.30754e-05 0 0 0 0 0 0 0 0 1.00175e-14 7649.98 -1.86463 254.175 254.002 
-0.0534909 0.00377762 0.000207751 6.31112e-05 0 0 0 0 0 0 0 0 1.00232e-14 7649.97 -2.14653 254.232 254.003 
-0.0481892 0.00358493 0.00020788 6.31502e-05 0 0 0 0 0 0 0 0 1.00294e-14 7649.96 -2.40541 254.294 254.003 
-0.0434123 0.00340194 0.000208016 6.31917e-05 0 0 0 0 0 0 0 0 1.0036e-14 7649.96 -2.64111 254.36 254.004 
-0.0391086 0.00322938 0.000208159 6.3235e-05 0 0 0 0 0 0 0 0 1.00429e-14 7649.95 -2.85388 254.429 254.005 
-0.0352312 0.00306757 0.000208306 6.32797e-05 0 0 0 0 0 0 0 0 1.005e-14 7649.94 -3.04438 254.501 254.007 
-0.0317381 0.00291654 0.000208458 6.3326e-05 0 0 0 0 0 0 0 0 1.00573e-14 7649.91 -3.21313 254.622 254.01 
-0.0285912 0.00277609 0.000208708 6.34018e-05 0 0 0 0 0 0 0 0 1.00694e-14 7649.25 -3.34738 256.974 254.102 
-0.0257564 0.00264585 0.000210508 6.39486e-05 0 0 0 0 0 0 0 0 1.01562e-14 7627.31 -2.97377 358.022 258.05 
-0.0232025 0.00252537 0.000234596 7.12661e-05 0 0 0 0 0 0 0 0 1.13184e-14 7180.52 6.68636 2957.92 374.034 
-0.0209019 0.0024141 0.000416944 0.00012666 0 0 0 0 0 0 0 0 2.0116e-14 5148.21 27.2266 13500.7 1282.2 
-0.0188294 0.00231148 0.000787885 0.000239346 0 0 0 0 0 0 0 0 3.80125e-14 2560.89 37.3029 24948.1 3510.76 
-0.0169622 0.00221691 0.00109046 0.000331261 0 0 0 0 0 0 0 0 5.26104e-14 1385.22 38.5892 28489.6 6598.82 
-0.0152801 0.0021298 0.00120979 0.000367514 0 0 0 0 0 0 0 0 5.8368e-14 1006.92 42.1831 29352.1 10304 
-0.0137646 0.00204958 0.001243 0.000377602 0 0 0 0 0 0 0 0 5.99701e-14 860.949 42.0465 29666.8 14261.9 
-0.0123991 0.00197569 0.00125469 0.000381153 0 0 0 0 0 0 0 0 6.05341e-14 778.834 40.9806 29790 17733.6 
-0.0111687 0.00190759 0.00126284 0.000383628 0 0 0 0 0 0 0 0 6.09271e-14 710.712 39.7165 29877.9 20557.2 
-0.0100599 0.00184479 0.00126949 0.000385649 0 0 0 0 0 0 0 0 6.12481e-14 650.445 38.5927 29950.6 22782.4 
-0.00906062 0.0017868 0.00127503 0.000387331 0 0 0 0 0 0 0 0 6.15153e-14 596.629 37.7026 30011.7 24504 
-0.00815985 0.0017332 0.00127966 0.000388738 0 0 0 0 0 0 0 0 6.17388e-14 548.334 37.0522 30063.5 25822.4 
-0.00734777 0.00168356 0.00128356 0.000389922 0 0 0 0 0 0 0 0 6.19268e-14 504.792 36.6279 30107.5 26827.3 
-0.00661548 0.00163753 0.00128685 0.000390922 0 0 0 0 0 0 0 0 6.20857e-14 465.359 36.4142 30145.1 27592.7 
-0.00595498 0.00159474 0.00128964 0.000391771 0 0 0 0 0 0 0 0 6.22205e-14 429.488 36.3977 30177.5 28177 
-0.00535905 0.00155489 0.00129202 0.000392494 0 0 0 0 0 0 0 0 6.23353e-14 396.714 36.5673 30205.4 28624.9 
-0.00482116 0.00151768 0.00129406 0.000393112 0 0 0 0 0 0 0 0 6.24334e-14 366.641 36.9133 30229.8 28970.2 
-0.00433544 0.00148284 0.0012958 0.000393642 0 0 0 0 0 0 0 0 6.25175e-14 338.93 37.4266 30251.2 29238.4 
-0.00389659 0.00145015 0.0012973 0.000394097 0 0 0 0 0 0 0 0 6.25898e-14 313.293 38.0988 30270.3 29448.4 
-0.00349983 0.00141938 0.00129859 0.000394488 0 0 0 0 0 0 0 0 6.2652e-14 289.481 38.9214 30287.4 29614.2 
-0.00314082 0.00139032 0.00129969 0.000394824 0 0 0 0 0 0 0 0 6.27054e-14 267.279 39.8855 30302.9 29746.5 
-0.00281566 0.00136281 0.00130064 0.000395113 0 0 0 0 0 0 0 0 6.27512e-14 246.502 40.9818 30317.3 29853.1 
-0.00252081 0.00133667 0.00130146 0.000395359 0 0 0 0 0 0 0 0 6.27903e-14 226.99 42.2001 30330.7 29940.1 
-0.00225307 0.00131177 0.00130214 0.000395568 0 0 0 0 0 0 0 0 6.28235e-14 208.6 43.5292 30343.5 30011.8 
-0.00200953 0.00128796 0.00130272 0.000395744 0 0 0 0 0 0 0 0 6.28514e-14 191.207 44.9563 30355.8 30071.8 
-0.00178755 0.00126513 0.0013032 0.000395889 0 0 0 0 0 0 0 0 6.28745e-14 174.699 46.4669 30367.8 30122.6 
-0.00158474 0.00124317 0.00130359 0.000396007 0 0 0 0 0 0 0 0 6.28932e-14 158.972 48.0445 30379.7 30166.3 
-0.0013989 0.00122197 0.00130389 0.0003961 0 0 0 0 0 0 0 0 6.2908e-14 143.932 49.6699 30391.4 30204.2 
-0.00122804 0.00120145 0.00130413 0.000396172 0 0 0 0 0 0 0 0 6.29193e-14 129.492 51.3209 30403.2 30237.6 
-0.0010703 0.00118153 0.0013043 0.000396224 0 0 0 0 0 0 0 0 6.29277e-14 115.567 52.9724 30414.8 30267.2 
-0.000924012 0.00116214 0.00130442 0.000396261 0 0 0 0 0 0 0 0 6.29335e-14 102.078 54.5958 30426.4 30293.7 
-0.000787596 0.0011432 0.0013045 0.000396285 0 0 0 0 0 0 0 0 6.29374e-14 88.9486 56.1593 30437.7 30317.2 
-0.000659596 0.00112466 0.00130456 0.000396301 0 0 0 0 0 0 0 0 6.29399e-14 76.1031 57.628 30448.6 30338.3 
-0.000538649 0.00110645 0.0013046 0.000396313 0 0 0 0 0 0 0 0 6.29419e-14 63.4673 58.9649 30458.8 30356.3 
-0.000423466 0.00108854 0.00130464 0.000396326 0 0 0 0 0 0 0 0 6.29439e-14 50.9674 60.132 30468.2 30372.2 
-0.000312825 0.00107086 0.0013047 0.000396344 0 0 0 0 0 0 0 0 6.29467e-14 38.5289 61.0928 30476.4 30384.6 
-0.000205552 0.00105338 0.00130479 0.000396372 0 0 0 0 0 0 0 0 6.29511e-14 26.0772 61.8157 30483.1 30393.9 
-0.000100512 0.00103605 0.00130495 0.00039642 0 0 0 0 0 0 0 0 6.29588e-14 13.5971 62.2801 30488.4 30400.4 
3.4056e-06 0.00101884 0.00130505 0.000396453 0 0 0 0 0 0 0 0 6.2964e-14 0.449425 62.5168 30490.7 30402 
-0.0999856 0.0075044 0.000207271 6.29653e-05 0 0 0 0 0 0 0 0 1.00001e-14 7650 -0.125315 254 254 
-0.0901231 0.00722277 0.000207275 6.29667e-05 0 0 0 0 0 0 0 0 1.00003e-14 7650 -0.371179 254.003 254 
-0.0812277 0.00692003 0.000207286 6.29699e-05 0 0 0 0 0 0 0 0 1.00008e-14 7650 -0.633134 254.008 254 
-0.0732059 0.00660762 0.000207305 6.29757e-05 0 0 0 0 0 0 0 0 1.00017e-14 7650 -0.896676 254.017 254 
-0.0659731 0.00629401 0.000207333 6.29842e-05 0 0 0 0 0 0 0 0 1.00031e-14 7650 -1.15543 254.03 254 
-0.0594525 0.00598542 0.000207371 6.29957e-05 0 0 0 0 0 0 0 0 1.00049e-14 7649.99 -1.40486 254.048 254.001 
-0.0535745 0.00568622 0.000207419 6.30102e-05 0 0 0 0 0 0 0 0 1.00072e-14 7649.99 -1.64179 254.071 254.001 
-0.0482765 0.00539942 0.000207476 6.30276e-05 0 0 0 0 0 0 0 0 1.00099e-14 7649.99 -1.86409 254.098 254.001 
-0.0435015 0.00512695 0.000207542 6.30476e-05 0 0 0 0 0 0 0 0 1.00131e-14 7649.98 -2.07044 254.13 254.002 
-0.0391983 0.00486992 0.000207616 6.307e-05 0 0 0 0 0 0 0 0 1.00167e-14 7649.98 -2.26013 254.165 254.003 
-0.0353206 0.00462884 0.000207696 6.30945e-05 0 0 0 0 0 0 0 0 1.00206e-14 7649.97 -2.43294 254.205 254.003 
-0.0318263 0.00440374 0.000207785 6.31215e-05 0 0 0 0 0 0 0 0 1.00248e-14 7649.95 -2.58829 254.288 254.006 
-0.0286777 0.00419433 0.000207963 6.31754e-05 0 0 0 0 0 0 0 0 1.00334e-14 7649.38 -2.69947 256.284 254.084 
-0.0258407 0.00400009 0.000209549 6.36574e-05 0 0 0 0 0 0 0 0 1.011e-14 7630.41 -1.95297 342.423 257.45 
-0.0232845 0.00382034 0.000231174 7.02266e-05 0 0 0 0 0 0 0 0 1.11533e-14 7232.45 12.6447 2647.05 358.553 
-0.0209813 0.00365427 0.000402752 0.000122349 0 0 0 0 0 0 0 0 1.94313e-14 5275.47 51.4313 12867.3 1206.16 
-0.0189061 0.00350104 0.000767364 0.000233112 0 0 0 0 0 0 0 0 3.70224e-14 2670.58 76.6302 24517.7 3359.25 
-0.0170362 0.00335979 0.00107734 0.000327277 0 0 0 0 0 0 0 0 5.19775e-14 1429.46 76.2927 28332.4 6391.19 
-0.0153513 0.00322963 0.00120282 0.000365395 0 0 0 0 0 0 0 0 5.80315e-14 1028.66 76.3592 29250.7 10048.5 
-0.0138331 0.00310971 0.00123837 0.000376194 0 0 0 0 0 0 0 0 5.97465e-14 873.384 73.5705 29591.1 13998.8 
-0.0124648 0.00299919 0.0012505 0.000379879 0 0 0 0 0 0 0 0 6.03318e-14 787.805 70.9181 29724.9 17499.1 
-0.0112317 0.00289729 0.00125879 0.000382399 0 0 0 0 0 0 0 0 6.0732e-14 717.515 68.5452 29819.2 20359.2 
-0.0101203 0.00280326 0.00126558 0.000384462 0 0 0 0 0 0 0 0 6.10597e-14 655.411 66.5112 29897.1 22620.6 
-0.00911834 0.0027164 0.00127127 0.00038619 0 0 0 0 0 0 0 0 6.13341e-14 599.953 64.84 29962.8 24374.3 
-0.008215 0.00263605 0.00127607 0.000387648 0 0 0 0 0 0 0 0 6.15656e-14 550.177 63.5186 30018.6 25719.6 
-0.00740038 0.00256162 0.00128014 0.000388884 0 0 0 0 0 0 0 0 6.17619e-14 505.306 62.526 30066.2 26746.3 
-0.00666561 0.00249253 0.0012836 0.000389936 0 0 0 0 0 0 0 0 6.1929e-14 464.691 61.8417 30107 27528.8 
-0.00600267 0.00242827 0.00128657 0.000390836 0 0 0 0 0 0 0 0 6.2072e-14 427.78 61.4473 30142.3 28126.4 
-0.00540433 0.00236838 0.00128911 0.000391609 0 0 0 0 0 0 0 0 6.21948e-14 394.106 61.3266 30172.9 28584.6 
-0.00486408 0.00231242 0.0012913 0.000392276 0 0 0 0 0 0 0 0 6.23006e-14 363.266 61.4646 30199.6 28937.8 
-0.00437603 0.00225999 0.0012932 0.000392851 0 0 0 0 0 0 0 0 6.2392e-14 334.919 61.8473 30223.2 29212 
-0.00393488 0.00221075 0.00129484 0.00039335 0 0 0 0 0 0 0 0 6.24712e-14 308.769 62.4608 30244.1 29426.6 
-0.00353584 0.00216437 0.00129626 0.000393782 0 0 0 0 0 0 0 0 6.25398e-14 284.561 63.2918 30263 29596.1 
-0.00317458 0.00212054 0.0012975 0.000394156 0 0 0 0 0 0 0 0 6.25993e-14 262.075 64.3272 30280.1 29731.1 
-0.00284719 0.00207901 0.00129856 0.00039448 0 0 0 0 0 0 0 0 6.26507e-14 241.118 65.5537 30295.8 29839.9 
-0.00255013 0.00203952 0.00129948 0.000394759 0 0 0 0 0 0 0 0 6.26951e-14 221.521 66.9582 30310.5 29928.5 
-0.0022802 0.00200187 0.00130027 0.000394999 0 0 0 0 0 0 0 0 6.27331e-14 203.135 68.5272 30324.4 30001.6 
-0.00203448 0.00196585 0.00130094 0.000395202 0 0 0 0 0 0 0 0 6.27654e-14 185.826 70.2464 30337.7 30062.6 
-0.00181034 0.00193129 0.0013015 0.000395373 0 0 0 0 0 0 0 0 6.27925e-14 169.474 72.1 30350.5 30114.2 
-0.00160537 0.00189801 0.00130197 0.000395515 0 0 0 0 0 0 0 0 6.2815e-14 153.967 74.07 30363.1 30158.4 
-0.00141739 0.00186588 0.00130235 0.00039563 0 0 0 0 0 0 0 0 6.28333e-14 139.205 76.135 30375.5 30196.8 
-0.00124439 0.00183476 0.00130265 0.000395721 0 0 0 0 0 0 0 0 6.28478e-14 125.092 78.2692 30387.7 30230.5 
-0.00108453 0.00180453 0.00130288 0.000395791 0 0 0 0 0 0 0 0 6.2859e-14 111.538 80.4416 30399.8 30260.4 
-0.000936126 0.00177507 0.00130305 0.000395845 0 0 0 0 0 0 0 0 6.28674e-14 98.4602 82.6147 30411.7 30286.9 
-0.000797599 0.0017463 0.00130318 0.000395884 0 0 0 0 0 0 0 0 6.28736e-14 85.7751 84.7448 30423.2 30310.7 
-0.000667496 0.00171812 0.00130328 0.000395913 0 0 0 0 0 0 0 0 6.28782e-14 73.4033 86.7816 30434.3 30331.5 
-0.000544453 0.00169044 0.00130335 0.000395936 0 0 0 0 0 0 0 0 6.28819e-14 61.2665 88.6695 30444.6 30350 
-0.000427182 0.00166319 0.00130343 0.000395958 0 0 0 0 0 0 0 0 6.28854e-14 49.2867 90.3493 30454 30365.3 
-0.000314461 0.0016363 0.00130351 0.000395982 0 0 0 0 0 0 0 0 6.28893e-14 37.3851 91.7613 30462.2 30378 
-0.000205117 0.0016097 0.00130361 0.000396014 0 0 0 0 0 0 0 0 6.28943e-14 25.4833 92.8499 30468.9 30387.4 
-9.80148e-05 0.00158334 0.00130377 0.000396064 0 0 0 0 0 0 0 0 6.29022e-14 13.5591 93.5686 30474 30393 
7.9551e-06 0.00155714 0.00130388 0.000396097 0 0 0 0 0 0 0 0 6.29074e-14 0.993098 93.9297 30476.3 30395.4 
-0.0999555 0.0100109 0.00020727 6.29649e-05 0 0 0 0 0 0 0 0 9.99999e-15 7650 -0.091687 254 254 
-0.0901258 0.00963955 0.00020727 6.29649e-05 0 0 0 0 0 0 0 0 9.99999e-15 7650 -0.273726 254 254 
-0.0812554 0.00924001 0.000207271 6.29653e-05 0 0 0 0 0 0 0 0 1.00001e-14 7650 -0.472458 254 254 
-0.0732523 0.00882742 0.000207275 6.29665e-05 0 0 0 0 0 0 0 0 1.00002e-14 7650 -0.677999 254.002 254 
-0.0660331 0.00841305 0.000207283 6.29688e-05 0 0 0 0 0 0 0 0 1.00006e-14 7650 -0.885572 254.006 254 
-0.0595222 0.00800509 0.000207295 6.29727e-05 0 0 0 0 0 0 0 0 1.00012e-14 7650 -1.09124 254.011 254 
-0.0536511 0.0076094 0.000207314 6.29782e-05 0 0 0 0 0 0 0 0 1.00021e-14 7650 -1.29179 254.02 254 
-0.0483574 0.00722997 0.000207338 6.29857e-05 0 0 0 0 0 0 0 0 1.00033e-14 7650 -1.48468 254.032 254.001 
-0.043585 0.00686936 0.000207369 6.29951e-05 0 0 0 0 0 0 0 0 1.00048e-14 7649.99 -1.66796 254.046 254.001 
-0.039283 0.00652907 0.000207406 6.30064e-05 0 0 0 0 0 0 0 0 1.00066e-14 7649.99 -1.84021 254.064 254.001 
-0.0354053 0.00620979 0.000207449 6.30195e-05 0 0 0 0 0 0 0 0 1.00087e-14 7649.99 -2.00047 254.085 254.002 
-0.0319103 0.00591157 0.0002075 6.3035e-05 0 0 0 0 0 0 0 0 1.00111e-14 7649.97 -2.14729 254.145 254.003 
-0.0287605 0.00563405 0.000207629 6.3074e-05 0 0 0 0 0 0 0 0 1.00173e-14 7649.48 -2.24775 255.81 254.07 
-0.0259217 0.00537654 0.000209003 6.34916e-05 0 0 0 0 0 0 0 0 1.00836e-14 7633.38 -1.3386 327.816 256.884 
-0.0233635 0.00513815 0.000228094 6.92908e-05 0 0 0 0 0 0 0 0 1.10047e-14 7284.65 15.7013 2334.86 343.471 
-0.021058 0.00491783 0.000388094 0.000117896 0 0 0 0 0 0 0 0 1.87241e-14 5412.74 69.207 12191.2 1126.87 
-0.0189804 0.00471447 0.00074625 0.000226698 0 0 0 0 0 0 0 0 3.60038e-14 2794.98 110.72 24038.4 3196.67 
-0.017108 0.00452692 0.00106506 0.000323546 0 0 0 0 0 0 0 0 5.13851e-14 1480.18 112.313 28177.2 6165.49 
-0.0154206 0.00435402 0.00119759 0.000363806 0 0 0 0 0 0 0 0 5.7779e-14 1054.81 110.245 29160 9764.56 
-0.0138997 0.00419466 0.00123569 0.000375382 0 0 0 0 0 0 0 0 5.96176e-14 889.561 105.162 29526.4 13696.9 
-0.0125289 0.00404772 0.00124821 0.000379183 0 0 0 0 0 0 0 0 6.02213e-14 800.163 100.929 29670.2 17223.1 
-0.0112932 0.00391217 0.00125655 0.000381717 0 0 0 0 0 0 0 0 6.06237e-14 727.37 97.4594 29770.3 20122 
-0.0101792 0.00378703 0.00126338 0.000383792 0 0 0 0 0 0 0 0 6.09533e-14 663.099 94.5595 29853.1 22424.1 
-0.0091747 0.00367135 0.00126912 0.000385537 0 0 0 0 0 0 0 0 6.12304e-14 605.7 92.1654 29922.9 24215.3 
-0.00826885 0.00356429 0.00127399 0.000387015 0 0 0 0 0 0 0 0 6.14651e-14 554.187 90.2329 29982.4 25592.7 
-0.00745176 0.00346504 0.00127813 0.000388273 0 0 0 0 0 0 0 0 6.16649e-14 507.767 88.7263 30033.2 26645.7 
-0.00671454 0.00337286 0.00128167 0.000389349 0 0 0 0 0 0 0 0 6.18357e-14 465.781 87.6162 30076.9 27449.3 
-0.00604919 0.00328708 0.00128471 0.000390273 0 0 0 0 0 0 0 0 6.19825e-14 427.67 86.8772 30114.7 28063.4 
-0.00544846 0.00320706 0.00128733 0.000391069 0 0 0 0 0 0 0 0 6.2109e-14 392.956 86.4866 30147.5 28534.4 
-0.00490585 0.00313224 0.0012896 0.000391758 0 0 0 0 0 0 0 0 6.22184e-14 361.232 86.4234 30176.2 28897.5 
-0.00441546 0.0030621 0.00129157 0.000392355 0 0 0 0 0 0 0 0 6.23133e-14 332.145 86.6675 30201.4 29179.4 
-0.003972 0.00299616 0.00129327 0.000392874 0 0 0 0 0 0 0 0 6.23956e-14 305.391 87.1999 30223.9 29399.8 
-0.00357067 0.002934 0.00129476 0.000393325 0 0 0 0 0 0 0 0 6.24672e-14 280.707 88.0021 30244 29573.8 
-0.00320714 0.00287523 0.00129605 0.000393716 0 0 0 0 0 0 0 0 6.25294e-14 257.864 89.0565 30262.2 29712.4 
-0.00287749 0.00281948 0.00129716 0.000394056 0 0 0 0 0 0 0 0 6.25833e-14 236.659 90.3463 30278.9 29823.9 
-0.00257818 0.00276645 0.00129813 0.000394349 0 0 0 0 0 0 0 0 6.26298e-14 216.915 91.8553 30294.4 29914.6 
-0.00230602 0.00271585 0.00129896 0.0003946 0 0 0 0 0 0 0 0 6.26698e-14 198.474 93.5678 30309 29989.3 
-0.00205808 0.0026674 0.00129966 0.000394815 0 0 0 0 0 0 0 0 6.27039e-14 181.191 95.4675 30322.9 30051.6 
-0.00183173 0.00262087 0.00130026 0.000394996 0 0 0 0 0 0 0 0 6.27326e-14 164.939 97.5371 30336.2 30104.2 
-0.00162456 0.00257605 0.00130075 0.000395146 0 0 0 0 0 0 0 0 6.27565e-14 149.599 99.7568 30349.2 30149.2 
-0.00143438 0.00253274 0.00130116 0.000395269 0 0 0 0 0 0 0 0 6.2776e-14 135.062 102.103 30361.9 30188.2 
-0.00125919 0.00249077 0.00130148 0.000395367 0 0 0 0 0 0 0 0 6.27916e-14 121.227 104.547 30374.3 30222.3 
-0.00109715 0.00244998 0.00130174 0.000395444 0 0 0 0 0 0 0 0 6.28039e-14 107.998 107.053 30386.6 30252.5 
-0.000946565 0.00241022 0.00130193 0.000395503 0 0 0 0 0 0 0 0 6.28132e-14 95.2856 109.577 30398.5 30279.3 
-0.000805868 0.00237136 0.00130208 0.000395548 0 0 0 0 0 0 0 0 6.28203e-14 83.0022 112.068 30410 30303.1 
-0.000673601 0.00233328 0.00130219 0.000395582 0 0 0 0 0 0 0 0 6.28256e-14 71.0642 114.464 30421 30324.2 
-0.0005484 0.00229587 0.00130228 0.000395609 0 0 0 0 0 0 0 0 6.283e-14 59.3895 116.698 30431.3 30342.4 
-0.000428977 0.00225903 0.00130236 0.000395634 0 0 0 0 0 0 0 0 6.2834e-14 47.8964 118.698 30440.5 30358 
-0.000314112 0.00222266 0.00130245 0.000395661 0 0 0 0 0 0 0 0 6.28383e-14 36.5033 120.39 30448.6 30370.5 
-0.000202632 0.00218668 0.00130256 0.000395695 0 0 0 0 0 0 0 0 6.28436e-14 25.1283 121.702 30455.1 30379.8 
-9.34025e-05 0.002151 0.00130272 0.000395744 0 0 0 0 0 0 0 0 6.28515e-14 13.7432 122.577 30460.1 30385.9 
1.46843e-05 0.00211556 0.00130283 0.000395777 0 0 0 0 0 0 0 0 6.28567e-14 1.74356 123.023 30462.4 30387.8 
-0.0999125 0.0125218 0.00020727 6.29649e-05 0 0 0 0 0 0 0 0 9.99998e-15 7650 -0.0712195 254 254 
-0.0901169 0.0120627 0.000207269 6.29647e-05 0 0 0 0 0 0 0 0 9.99995e-15 7650 -0.213268 253.999 254 
-0.0812724 0.0115684 0.000207268 6.29645e-05 0 0 0 0 0 0 0 0 9.99992e-15 7650 -0.369909 253.999 254 
-0.0732889 0.0110576 0.000207268 6.29644e-05 0 0 0 0 0 0 0 0 9.99991e-15 7650 -0.534278 253.999 254 
-0.0660843 0.0105444 0.000207269 6.29648e-05 0 0 0 0 0 0 0 0 9.99997e-15 7650 -0.703148 253.999 254 
-0.0595841 0.0100388 0.000207273 6.29659e-05 0 0 0 0 0 0 0 0 1.00001e-14 7650 -0.873639 254.001 254 
-0.0537204 0.00954823 0.000207279 6.29678e-05 0 0 0 0 0 0 0 0 1.00004e-14 7650 -1.04317 254.004 254 
-0.0484318 0.00907763 0.000207289 6.29708e-05 0 0 0 0 0 0 0 0 1.00009e-14 7650 -1.20947 254.008 254 
-0.0436627 0.00863021 0.000207303 6.2975e-05 0 0 0 0 0 0 0 0 1.00016e-14 7650 -1.37061 254.015 254 
-0.0393624 0.00820787 0.000207321 6.29806e-05 0 0 0 0 0 0 0 0 1.00025e-14 7650 -1.525 254.023 254 
-0.0354854 0.00781145 0.000207344 6.29874e-05 0 0 0 0 0 0 0 0 1.00036e-14 7649.99 -1.67138 254.035 254.001 
-0.0319902 0.00744106 0.000207373 6.29962e-05 0 0 0 0 0 0 0 0 1.00049e-14 7649.98 -1.80788 254.077 254.002 
-0.0288394 0.00709626 0.000207467 6.30249e-05 0 0 0 0 0 0 0 0 1.00095e-14 7649.57 -1.90051 255.454 254.057 
-0.0259993 0.00677621 0.000208656 6.3386e-05 0 0 0 0 0 0 0 0 1.00669e-14 7636.06 -0.970701 314.9 256.382 
-0.0234394 0.00647981 0.000225331 6.84516e-05 0 0 0 0 0 0 0 0 1.08714e-14 7334.1 16.816 2039.18 329.616 
-0.021132 0.00620577 0.000373204 0.000113373 0 0 0 0 0 0 0 0 1.80057e-14 5554.63 81.8452 11494.6 1048.04 
-0.0190522 0.00595273 0.000724181 0.000219994 0 0 0 0 0 0 0 0 3.4939e-14 2930.78 139.963 23509.6 3030.26 
-0.0171775 0.00571927 0.00105243 0.000319709 0 0 0 0 0 0 0 0 5.07757e-14 1535.48 146.758 28015.9 5932.98 