TITLE = "TEST_PROBLEM"
FILETYPE = FULL
VARIABLES = "x-direction, [m]"  "y-direction, [m]" "rho<sub>N2</sub> [kg/m<sup>3</sup>] "  "rho<sub>O2</sub> [kg/m<sup>3</sup>] "  "rho<sub>NO</sub> [kg/m<sup>3</sup>] "  "rho<sub>N</sub> [kg/m<sup>3</sup>] "  "rho<sub>O</sub> [kg/m<sup>3</sup>] "  "rho<sub>N2p</sub> [kg/m<sup>3</sup>] "  "rho<sub>O2p</sub> [kg/m<sup>3</sup>] "  "rho<sub>NOp</sub> [kg/m<sup>3</sup>] "  "rho<sub>Np</sub> [kg/m<sup>3</sup>] "  "rho<sub>Op</sub> [kg/m<sup>3</sup>] "  "rho<sub>e</sub> [kg/m<sup>3</sup>] "  "u[m/s] "  "v[m/s] "  "T<sub>tra</sub> [K] "  
ZONE
T = "CPU number: 0"
NODES = 42411
ELEMENTS = 42000
DATAPACKING = BLOCK
ZONETYPE = FEQUADRILATERAL
VARLOCATION =([3-16]=CELLCENTERED)
0
-0.1
-0.000292138
-0.000585738
-0.000880805
-0.00117735
-0.00147537
-0.00177489
-0.0020759
-0.00237842
-0.00268245
-0.002988
-0.00329508
-0.00360369
-0.00391385
-0.00422556
-0.00453882
-0.00485366
-0.00517006
-0.00548805
-0.00580763
-0.00612881
-0.00645159
-0.00677599
-0.007102
-0.00742965
-0.00775894
-0.00808987
-0.00842246
-0.00875671
-0.00909263
-0.00943023
-0.00976952
-0.0101105
-0.0104532
-0.0107976
-0.0111437
-0.0114916
-0.0118412
-0.0121925
-0.0125456
-0.0129005
-0.0132571
-0.0136156
-0.0139758
-0.0143378
-0.0147016
-0.0150673
-0.0154347
-0.0158041
-0.0161752
-0.0165482
-0.0169231
-0.0172999
-0.0176785
-0.018059
-0.0184415
-0.0188258
-0.0192121
-0.0196003
-0.0199904
-0.0203825
-0.0207766
-0.0211726
-0.0215706
-0.0219706
-0.0223726
-0.0227766
-0.0231826
-0.0235906
-0.0240007
-0.0244129
-0.0248271
-0.0252434
-0.0256617
-0.0260822
-0.0265047
-0.0269294
-0.0273561
-0.0277851
-0.0282161
-0.0286494
-0.0290847
-0.0295223
-0.029962
-0.030404
-0.0308482
-0.0312945
-0.0317431
-0.032194
-0.0326471
-0.0331025
-0.0335601
-0.0340201
-0.0344823
-0.0349469
-0.0354137
-0.0358829
-0.0363545
-0.0368284
-0.0373047
-0.0377833
-0.0382644
-0.0387479
-0.0392337
-0.039722
-0.0402128
-0.040706
-0.0412017
-0.0416998
-0.0422005
-0.0427036
-0.0432093
-0.0437174
-0.0442282
-0.0447414
-0.0452573
-0.0457757
-0.0462967
-0.0468204
-0.0473466
-0.0478755
-0.048407
-0.0489412
-0.049478
-0.0500175
-0.0505598
-0.0511047
-0.0516523
-0.0522027
-0.0527559
-0.0533118
-0.0538705
-0.054432
-0.0549963
-0.0555634
-0.0561334
-0.0567062
-0.0572819
-0.0578604
-0.0584418
-0.0590262
-0.0596135
-0.0602037
-0.0607968
-0.0613929
-0.0619921
-0.0625941
-0.0631993
-0.0638074
-0.0644186
-0.0650328
-0.0656501
-0.0662705
-0.066894
-0.0675206
-0.0681503
-0.0687832
-0.0694193
-0.0700585
-0.0707009
-0.0713466
-0.0719955
-0.0726476
-0.073303
-0.0739616
-0.0746235
-0.0752888
-0.0759574
-0.0766293
-0.0773046
-0.0779833
-0.0786653
-0.0793508
-0.0800397
-0.080732
-0.0814278
-0.0821271
-0.0828299
-0.0835361
-0.084246
-0.0849593
-0.0856763
-0.0863968
-0.0871209
-0.0878487
-0.08858
-0.0893151
-0.0900538
-0.0907962
-0.0915423
-0.0922922
-0.0930458
-0.0938031
-0.0945643
-0.0953292
-0.096098
-0.0968707
-0.0976472
-0.0984275
-0.0992118
0.2202
0.0521983
0.219709
0.219216
0.21872
0.218222
0.217721
0.217218
0.216712
0.216204
0.215693
0.21518
0.214664
0.214146
0.213625
0.213101
0.212575
0.212046
0.211514
0.21098
0.210443
0.209903
0.209361
0.208816
0.208269
0.207718
0.207165
0.206609
0.20605
0.205489
0.204924
0.204357
0.203787
0.203214
0.202638
0.20206
0.201478
0.200894
0.200307
0.199716
0.199123
0.198527
0.197928
0.197326
0.19672
0.196112
0.195501
0.194887
0.194269
0.193649
0.193025
0.192399
0.191769
0.191136
0.1905
0.189861
0.189218
0.188572
0.187923
0.187271
0.186616
0.185957
0.185295
0.18463
0.183961
0.183289
0.182614
0.181935
0.181253
0.180567
0.179878
0.179186
0.17849
0.177791
0.177088
0.176382
0.175672
0.174958
0.174241
0.173521
0.172796
0.172069
0.171337
0.170602
0.169863
0.169121
0.168375
0.167625
0.166871
0.166114
0.165352
0.164587
0.163818
0.163046
0.162269
0.161489
0.160704
0.159916
0.159124
0.158328
0.157527
0.156723
0.155915
0.155103
0.154287
0.153466
0.152642
0.151813
0.15098
0.150144
0.149303
0.148457
0.147608
0.146754
0.145896
0.145034
0.144167
0.143296
0.142421
0.141541
0.140657
0.139768
0.138875
0.137978
0.137076
0.13617
0.135259
0.134343
0.133423
0.132498
0.131569
0.130635
0.129697
0.128753
0.127805
0.126852
0.125895
0.124933
0.123965
0.122994
0.122017
0.121035
0.120048
0.119057
0.11806
0.117059
0.116052
0.115041
0.114024
0.113002
0.111976
0.110944
0.109907
0.108864
0.107817
0.106764
0.105706
0.104643
0.103574
0.1025
0.101421
0.100337
0.0992464
0.0981508
0.0970498
0.0959432
0.0948312
0.0937135
0.0925903
0.0914614
0.0903269
0.0891868
0.0880409
0.0868893
0.085732
0.0845688
0.0833999
0.0822251
0.0810444
0.0798578
0.0786653
0.0774669
0.0762624
0.0750519
0.0738354
0.0726128
0.071384
0.0701491
0.0689081
0.0676608
0.0664073
0.0651476
0.0638815
0.0626091
0.0613304
0.0600452
0.0587537
0.0574556
0.0561511
0.0548401
0.0535225
0.0304693
0.0299306
0.0293965
0.0288668
0.0283416
0.0278208
0.0273046
0.0267929
0.0262858
0.0257831
0.0252851
0.0247916
0.0243026
0.0238183
0.0233385
0.0228634
0.0223929
0.021927
0.0214658
0.0210092
0.0205573
0.02011
0.0196675
0.0192296
0.0187964
0.018368
0.0179443
0.0175253
0.0171111
0.0167016
0.0162969
0.015897
0.0155018
0.0151115
0.0147259
0.0143452
0.0139693
0.0135982
0.0132319
0.0128705
0.012514
0.0121623
0.0118155
0.0114736
0.0111365
0.0108044
0.0104771
0.0101548
0.00983738
0.00952489
0.00921734
0.00891473
0.00861706
0.00832435
0.00803661
0.00775383
0.00747603
0.00720321
0.00693538
0.00667254
0.0064147
0.00616187
0.00591405
0.00567125
0.00543348
0.00520073
0.00497302
0.00475035
0.00453272
0.00432015
0.00411263
0.00391017
0.00371278
0.00352046
0.00333321
0.00315104
0.00297395
0.00280195
0.00263505
0.00247323
0.00231652
0.00216491
0.0020184
0.00187701
0.00174072
0.00160956
0.00148351
0.00136259
0.00124678
0.00113611
0.00103057
0.00093016
0.000834885
0.000744748
0.00065975
0.000579893
0.00050518
0.000435612
0.00037119
0.000311917
0.000257793
0.00020882
0.000164999
0.000126331
9.28172e-05
6.44578e-05
4.12537e-05
2.32055e-05
1.03137e-05
2.57843e-06
0.0310769
0.0316967
0.0323289
0.0329738
0.0336315
0.0343024
0.0349868
0.0356848
0.0363967
0.037123
0.0378637
0.0386192
0.0393899
0.040176
0.0409778
0.0417956
0.0426298
0.0434806
0.0443485
0.0452338
0.0461367
0.0470577
0.0479972
0.0489554
0.0499328
0.0509297
0.0519466
0.0529838
0.0540417
0.0551208
0.0562215
0.0573442
0.0584894
0.0596574
0.0608488
0.0620641
0.0633037
0.064568
0.0658576
0.0671731
0.0685148
0.0698834
0.0712793
0.0727032
0.0741555
0.0756369
0.0771479
0.0786891
0.0802612
0.0818647
0.0835003
0.0851685
0.0868702
0.0886059
0.0903762
0.092182
0.094024
0.0959027
0.097819
0.0997737
0.101767
0.103801
0.105875
0.107991
0.110149
0.11235
0.114596
0.116886
0.119222
0.121605
0.124035
0.126514
0.129043
0.131622
0.134252
0.136936
0.139673
0.142464
0.145312
0.148217
0.151179
0.154201
0.157283
0.160427
0.163634
0.166905
0.170241
0.173644
0.177116
0.180656
0.184268
0.187951
0.191709
0.195541
0.19945
0.203437
0.207504
0.211653
0.215884
-0.100001
-0.100002
-0.100004
-0.100005
-0.100005
-0.100006
-0.100006
-0.100006
-0.100006
-0.100005
-0.100003
-0.100001
-0.099998
-0.0999943
-0.0999897
-0.0999844
-0.0999782
-0.0999711
-0.0999631
-0.0999541
-0.0999442
-0.0999332
-0.0999212
-0.0999082
-0.099894
-0.0998787
-0.0998622
-0.0998444
-0.0998255
-0.0998052
-0.0997835
-0.0997605
-0.0997361
-0.0997102
-0.0996827
-0.0996537
-0.0996231
-0.0995908
-0.0995568
-0.099521
-0.0994834
-0.0994439
-0.0994025
-0.0993591
-0.0993136
-0.0992659
-0.0992161
-0.0991641
-0.0991097
-0.0990529
-0.0989936
-0.0989318
-0.0988674
-0.0988002
-0.0987303
-0.0986575
-0.0985818
-0.098503
-0.0984211
-0.098336
-0.0982475
-0.0981556
-0.0980602
-0.0979611
-0.0978584
-0.0977517
-0.0976411
-0.0975264
-0.0974075
-0.0972843
-0.0971566
-0.0970243
-0.0968873
-0.0967454
-0.0965985
-0.0964465
-0.0962891
-0.0961262
-0.0959577
-0.0957834
-0.0956031
-0.0954167
-0.0952239
-0.0950246
-0.0948185
-0.0946056
-0.0943857
-0.0941587
-0.0939242
-0.0936824
-0.0934328
-0.0931755
-0.0929103
-0.0926369
-0.0923552
-0.0920651
-0.0917664
-0.0914588
-0.0911423
-0.0908166
-0.0904816
-0.0901371
-0.0897828
-0.0894187
-0.0890444
-0.0886599
-0.0882649
-0.0878593
-0.0874427
-0.0870151
-0.0865762
-0.0861258
-0.0856637
-0.0851897
-0.0847035
-0.084205
-0.083694
-0.0831701
-0.0826332
-0.0820831
-0.0815195
-0.0809422
-0.0803509
-0.0797455
-0.0791256
-0.0784911
-0.0778418
-0.0771773
-0.0764974
-0.0758018
-0.0750904
-0.0743629
-0.073619
-0.0728585
-0.072081
-0.0712865
-0.0704745
-0.0696449
-0.0687973
-0.0679316
-0.0670474
-0.0661445
-0.0652227
-0.0642816
-0.063321
-0.0623406
-0.0613403
-0.0603196
-0.0592783
-0.0582162
-0.057133
-0.0560285
-0.0549023
-0.0537542
-0.052584
-0.0513913
-0.0501759
-0.0489376
-0.0476761
-0.0463911
-0.0450824
-0.0437498
-0.0423928
-0.0410114
-0.0396053
-0.0381742
-0.0367178
-0.0352361
-0.0337286
-0.0321952
-0.0306356
-0.0290497
-0.0274371
-0.0257978
-0.0241314
-0.0224378
-0.0207168
-0.0189682
-0.0171918
-0.0153874
-0.0135549
-0.011694
-0.00980474
-0.00788685
-0.00594022
-0.00396473
-0.00196026
7.33015e-05
0.00213604
0.00422803
0.00634936
0.00850006
0.0106802
0.0128898
0.0151288
0.0173973
0.0196952
0.0220225
0.0243792
0.0267651
0.0291801
0.0316242
0.0340971
0.0365988
0.0391289
0.0416874
0.0442738
0.046888
0.0495296
0.215398
0.21491
0.214419
0.213925
0.21343
0.212931
0.212431
0.211927
0.211422
0.210913
0.210403
0.209889
0.209373
0.208855
0.208334
0.20781
0.207283
0.206754
0.206223
0.205689
0.205152
0.204612
0.20407
0.203524
0.202977
0.202426
0.201873
0.201317
0.200758
0.200196
0.199632
0.199065
0.198495
0.197922
0.197346
0.196767
0.196186
0.195601
0.195014
0.194423
0.19383
0.193234
0.192635
0.192032
0.191427
0.190819
0.190208
0.189593
0.188976
0.188355
0.187732
0.187105
0.186475
0.185842
0.185206
0.184566
0.183924
0.183278
0.182629
0.181977
0.181321
0.180663
0.18
0.179335
0.178666
0.177994
0.177319
0.17664
0.175958
0.175272
0.174583
0.173891
0.173195
0.172495
0.171792
0.171086
0.170376
0.169662
0.168945
0.168225
0.1675
0.166772
0.166041
0.165306
0.164567
0.163824
0.163078
0.162328
0.161574
0.160817
0.160055
0.15929
0.158521
0.157748
0.156972
0.156191
0.155407
0.154618
0.153826
0.15303
0.15223
0.151425
0.150617
0.149805
0.148988
0.148168
0.147343
0.146515
0.145682
0.144845
0.144004
0.143158
0.142309
0.141455
0.140597
0.139734
0.138867
0.137996
0.137121
0.136241
0.135357
0.134468
0.133575
0.132678
0.131776
0.130869
0.129958
0.129042
0.128122
0.127197
0.126268
0.125334
0.124395
0.123452
0.122504
0.121551
0.120593
0.119631
0.118663
0.117691
0.116714
0.115733
0.114746
0.113754
0.112758
0.111756
0.110749
0.109738
0.108721
0.107699
0.106672
0.10564
0.104603
0.103561
0.102513
0.10146
0.100402
0.0993386
0.0982699
0.0971958
0.0961164
0.0950316
0.0939413
0.0928456
0.0917445
0.0906378
0.0895256
0.0884078
0.0872844
0.0861554
0.0850208
0.0838805
0.0827345
0.0815828
0.0804253
0.079262
0.0780929
0.076918
0.0757371
0.0745504
0.0733578
0.0721591
0.0709545
0.0697439
0.0685272
0.0673044
0.0660756
0.0648405
0.0635993
0.0623519
0.0610983
0.0598384
0.0585722
0.0572996
0.0560207
0.0547354
0.0534437
0.0521455
0.0508408
0.211171
0.210688
0.210201
0.209713
0.209222
0.208728
0.208232
0.207734
0.207233
0.20673
0.206224
0.205715
0.205204
0.20469
0.204174
0.203656
0.203134
0.20261
0.202084
0.201555
0.201023
0.200488
0.199951
0.199411
0.198869
0.198323
0.197775
0.197225
0.196671
0.196115
0.195556
0.194994
0.19443
0.193862
0.193292
0.192719
0.192143
0.191564
0.190982
0.190397
0.18981
0.189219
0.188626
0.188029
0.18743
0.186827
0.186222
0.185613
0.185002
0.184387
0.183769
0.183149
0.182525
0.181898
0.181268
0.180634
0.179998
0.179358
0.178716
0.17807
0.17742
0.176768
0.176112
0.175453
0.174791
0.174125
0.173456
0.172784
0.172108
0.171429
0.170746
0.170061
0.169371
0.168679
0.167982
0.167283
0.166579
0.165873
0.165162
0.164449
0.163731
0.16301
0.162286
0.161558
0.160826
0.16009
0.159351
0.158608
0.157862
0.157112
0.156357
0.1556
0.154838
0.154073
0.153303
0.15253
0.151753
0.150972
0.150188
0.149399
0.148606
0.14781
0.147009
0.146205
0.145396
0.144584
0.143767
0.142946
0.142121
0.141292
0.140459
0.139622
0.13878
0.137935
0.137085
0.13623
0.135372
0.134509
0.133642
0.132771
0.131895
0.131015
0.13013
0.129241
0.128348
0.12745
0.126548
0.125641
0.12473
0.123814
0.122893
0.121968
0.121038
0.120104
0.119165
0.118221
0.117272
0.116319
0.115361
0.114398
0.113431
0.112458
0.111481
0.110499
0.109512
0.10852
0.107523
0.106521
0.105514
0.104502
0.103485
0.102462
0.101435
0.100403
0.099365
0.0983222
0.0972742
0.096221
0.0951625
0.0940987
0.0930296
0.0919551
0.0908753
0.0897901
0.0886994
0.0876033
0.0865017
0.0853946
0.084282
0.0831638
0.08204
0.0809106
0.0797756
0.0786348
0.0774884
0.0763362
0.0751783
0.0740146
0.0728451
0.0716697
0.0704884
0.0693013
0.0681082
0.0669091
0.0657041
0.064493
0.0632758
0.0620526
0.0608233
0.0595878
0.0583461
0.0570982
0.0558441
0.0545837
0.0533171
0.052044
0.0507647
0.0494789
0.0481867
0.207027
0.206548
0.206067
0.205583
0.205096
0.204607
0.204116
0.203622
0.203126
0.202627
0.202126
0.201622
0.201116
0.200607
0.200096
0.199582
0.199065
0.198546
0.198025
0.1975
0.196973
0.196444
0.195912
0.195377
0.194839
0.194299
0.193756
0.193211
0.192662
0.192111
0.191558
0.191001
0.190442
0.189879
0.189314
0.188747
0.188176
0.187602
0.187026
0.186447
0.185865
0.18528
0.184692
0.184101
0.183507
0.18291
0.18231
0.181707
0.181101
0.180493
0.179881
0.179266
0.178648
0.178026
0.177402
0.176775
0.176144
0.175511
0.174874
0.174234
0.173591
0.172944
0.172295
0.171642
0.170985
0.170326
0.169663
0.168997
0.168328
0.167655
0.166979
0.166299
0.165617
0.16493
0.164241
0.163547
0.162851
0.162151
0.161447
0.16074
0.160029
0.159315
0.158597
0.157876
0.157151
0.156422
0.15569
0.154954
0.154214
0.153471
0.152724
0.151973
0.151219
0.15046
0.149698
0.148932
0.148163
0.147389
0.146612
0.14583
0.145045
0.144256
0.143463
0.142666
0.141865
0.14106
0.140251
0.139438
0.13862
0.137799
0.136974
0.136144
0.13531
0.134473
0.133631
0.132784
0.131934
0.131079
0.13022
0.129357
0.128489
0.127617
0.126741
0.12586
0.124975
0.124086
0.123192
0.122294
0.121391
0.120483
0.119571
0.118655
0.117734
0.116808
0.115878
0.114943
0.114003
0.113058
0.112109
0.111156
0.110197
0.109234
0.108265
0.107292
0.106314
0.105332
0.104344
0.103351
0.102354
0.101351
0.100343
0.0993307
0.0983129
0.0972901
0.0962622
0.0952291
0.0941909
0.0931475
0.0920988
0.0910449
0.0899858
0.0889213
0.0878515
0.0867764
0.0856959
0.08461
0.0835187
0.0824219
0.0813196
0.0802118
0.0790985
0.0779796
0.0768552
0.0757251
0.0745893
0.0734479
0.0723007
0.0711478
0.0699892
0.0688248
0.0676545
0.0664784
0.0652964
0.0641085
0.0629147
0.0617149
0.0605091
0.0592972
0.0580793
0.0568553
0.0556252
0.054389
0.0531465
0.0518979
0.050643
0.0493818
0.0481144
0.0468406
0.0455604
0.202965
0.20249
0.202013
0.201533
0.201051
0.200566
0.20008
0.19959
0.199098
0.198604
0.198108
0.197608
0.197107
0.196602
0.196096
0.195587
0.195075
0.19456
0.194043
0.193524
0.193002
0.192477
0.19195
0.19142
0.190887
0.190352
0.189814
0.189273
0.18873
0.188184
0.187635
0.187084
0.186529
0.185972
0.185412
0.18485
0.184284
0.183716
0.183145
0.182571
0.181994
0.181414
0.180832
0.180246
0.179657
0.179066
0.178472
0.177874
0.177274
0.176671
0.176064
0.175455
0.174842
0.174227
0.173608
0.172987
0.172362
0.171734
0.171103
0.170469
0.169831
0.169191
0.168547
0.1679
0.16725
0.166596
0.16594
0.165279
0.164616
0.16395
0.16328
0.162606
0.16193
0.161249
0.160566
0.159879
0.159189
0.158495
0.157798
0.157097
0.156393
0.155685
0.154974
0.154259
0.15354
0.152818
0.152093
0.151364
0.150631
0.149894
0.149154
0.14841
0.147662
0.146911
0.146156
0.145397
0.144634
0.143867
0.143097
0.142323
0.141545
0.140763
0.139977
0.139187
0.138393
0.137595
0.136794
0.135988
0.135178
0.134364
0.133546
0.132724
0.131898
0.131068
0.130234
0.129395
0.128552
0.127705
0.126854
0.125999
0.125139
0.124275
0.123407
0.122534
0.121657
0.120776
0.11989
0.118999
0.118105
0.117205
0.116302
0.115394
0.114481
0.113564
0.112642
0.111715
0.110784
0.109848
0.108908
0.107962
0.107013
0.106058
0.105098
0.104134
0.103165
0.102191
0.101213
0.100229
0.0992403
0.0982468
0.0972483
0.0962448
0.0952363
0.0942228
0.0932042
0.0921805
0.0911517
0.0901177
0.0890786
0.0880342
0.0869847
0.0859299
0.0848698
0.0838045
0.0827338
0.0816577
0.0805763
0.0794894
0.0783972
0.0772994
0.0761962
0.0750875
0.0739732
0.0728533
0.0717279
0.0705968
0.0694601
0.0683176
0.0671695
0.0660156
0.064856
0.0636905
0.0625193
0.0613422
0.0601591
0.0589702
0.0577753
0.0565745
0.0553677
0.0541548
0.0529358
0.0517108
0.0504796
0.0492423
0.0479988
0.0467491
0.0454931
0.0442308
0.0429623
0.198982
0.198511
0.198038
0.197563
0.197085
0.196605
0.196122
0.195637
0.19515
0.19466
0.194167
0.193673
0.193175
0.192676
0.192173
0.191669
0.191161
0.190652
0.190139
0.189624
0.189107
0.188587
0.188064
0.187539
0.187011
0.18648
0.185947
0.185411
0.184873
0.184331
0.183787
0.183241
0.182691
0.182139
0.181584
0.181027
0.180466
0.179903
0.179337
0.178768
0.178196
0.177621
0.177044
0.176464
0.17588
0.175294
0.174705
0.174113
0.173518
0.17292
0.172319
0.171715
0.171108
0.170498
0.169884
0.169268
0.168649
0.168027
0.167401
0.166773
0.166141
0.165506
0.164868
0.164227
0.163582
0.162934
0.162283
0.161629
0.160972
0.160311
0.159647
0.15898
0.158309
0.157635
0.156957
0.156277
0.155592
0.154905
0.154214
0.153519
0.152821
0.15212
0.151415
0.150706
0.149994
0.149278
0.148559
0.147836
0.14711
0.14638
0.145646
0.144909
0.144168
0.143423
0.142674
0.141922
0.141166
0.140406
0.139643
0.138875
0.138104
0.137329
0.13655
0.135767
0.13498
0.13419
0.133395
0.132596
0.131794
0.130987
0.130176
0.129362
0.128543
0.12772
0.126893
0.126062
0.125227
0.124387
0.123543
0.122696
0.121843
0.120987
0.120126
0.119261
0.118392
0.117518
0.11664
0.115758
0.114871
0.11398
0.113084
0.112184
0.111279
0.11037
0.109456
0.108538
0.107615
0.106688
0.105755
0.104819
0.103877
0.102931
0.10198
0.101024
0.100064
0.0990984
0.0981283
0.0971533
0.0961735
0.0951887
0.0941991
0.0932045
0.0922049
0.0912003
0.0901907
0.089176
0.0881563
0.0871315
0.0861015
0.0850664
0.0840261
0.0829806
0.0819299
0.080874
0.0798127
0.0787462
0.0776743
0.0765971
0.0755145
0.0744264
0.0733329
0.072234
0.0711295
0.0700196
0.0689041
0.067783
0.0666563
0.065524
0.064386
0.0632423
0.0620929
0.0609377
0.0597768
0.0586101
0.0574375
0.0562591
0.0550748
0.0538846
0.0526884
0.0514862
0.050278
0.0490638
0.0478435
0.0466171
0.0453846
0.0441459
0.042901
0.0416499
0.0403926
0.195077
0.19461
0.194141
0.19367
0.193196
0.19272
0.192241
0.191761
0.191277
0.190792
0.190304
0.189813
0.18932
0.188825
0.188327
0.187826
0.187324
0.186818
0.18631
0.1858
0.185287
0.184771
0.184253
0.183732
0.183209
0.182683
0.182154
0.181623
0.181089
0.180552
0.180013
0.179471
0.178926
0.178379
0.177829
0.177276
0.17672
0.176162
0.175601
0.175037
0.17447
0.1739
0.173328
0.172752
0.172174
0.171593
0.171009
0.170422
0.169832
0.169239
0.168643
0.168044
0.167442
0.166838
0.16623
0.165619
0.165005
0.164388
0.163768
0.163145
0.162518
0.161889
0.161256
0.16062
0.159982
0.159339
0.158694
0.158045
0.157394
0.156739
0.15608
0.155419
0.154754
0.154085
0.153414
0.152739
0.152061
0.151379
0.150694
0.150005
0.149313
0.148618
0.147919
0.147216
0.14651
0.145801
0.145088
0.144371
0.143651
0.142927
0.1422
0.141469
0.140734
0.139996
0.139254
0.138508
0.137758
0.137005
0.136248
0.135487
0.134723
0.133954
0.133182
0.132406
0.131626
0.130842
0.130054
0.129262
0.128467
0.127667
0.126863
0.126056
0.125244
0.124428
0.123608
0.122784
0.121956
0.121124
0.120287
0.119447
0.118602
0.117753
0.1169
0.116042
0.11518
0.114314
0.113444
0.112569
0.11169
0.110806
0.109918
0.109026
0.108129
0.107227
0.106321
0.105411
0.104496
0.103576
0.102652
0.101723
0.10079
0.0998519
0.0989092
0.0979617
0.0970094
0.0960525
0.0950907
0.0941241
0.0931527
0.0921764
0.0911953
0.0902092
0.0892182
0.0882223
0.0872213
0.0862154
0.0852044
0.0841884
0.0831673
0.0821411
0.0811098
0.0800733
0.0790317
0.0779848
0.0769327
0.0758753
0.0748126
0.0737447
0.0726713
0.0715927
0.0705086
0.0694191
0.0683242
0.0672237
0.0661178
0.0650064
0.0638894
0.0627668
0.0616386
0.0605047
0.0593652
0.05822
0.0570691
0.0559124
0.0547499
0.0535816
0.0524075
0.0512275
0.0500416
0.0488498
0.047652
0.0464482
0.0452384
0.0440226
0.0428007
0.0415726
0.0403384
0.0390981
0.0378516
0.191248
0.190785
0.19032
0.189853
0.189383
0.188911
0.188437
0.18796
0.187481
0.186999
0.186515
0.186029
0.18554
0.185049
0.184555
0.184059
0.18356
0.183059
0.182555
0.182049
0.18154
0.181029
0.180515
0.179999
0.17948
0.178958
0.178434
0.177907
0.177377
0.176845
0.176311
0.175773
0.175233
0.17469
0.174145
0.173596
0.173045
0.172492
0.171935
0.171376
0.170814
0.170249
0.169681
0.169111
0.168537
0.167961
0.167382
0.1668
0.166215
0.165627
0.165036
0.164442
0.163845
0.163245
0.162643
0.162037
0.161428
0.160816
0.160201
0.159583
0.158962
0.158338
0.157711
0.15708
0.156447
0.15581
0.15517
0.154527
0.153881
0.153231
0.152578
0.151922
0.151263
0.1506
0.149934
0.149265
0.148592
0.147916
0.147237
0.146554
0.145868
0.145178
0.144485
0.143788
0.143088
0.142385
0.141678
0.140967
0.140253
0.139535
0.138814
0.138089
0.13736
0.136628
0.135892
0.135153
0.13441
0.133663
0.132912
0.132158
0.131399
0.130637
0.129872
0.129102
0.128329
0.127551
0.12677
0.125985
0.125196
0.124403
0.123606
0.122805
0.122
0.121191
0.120378
0.119561
0.11874
0.117914
0.117085
0.116251
0.115414
0.114572
0.113726
0.112875
0.112021
0.111162
0.110299
0.109431
0.108559
0.107683
0.106802
0.105917
0.105028
0.104134
0.103236
0.102333
0.101426
0.100514
0.0995975
0.0986765
0.0977509
0.0968207
0.0958858
0.0949462
0.094002
0.093053
0.0920993
0.0911408
0.0901775
0.0892094
0.0882365
0.0872587
0.086276
0.0852884
0.0842958
0.0832983
0.0822958
0.0812883
0.0802758
0.0792582
0.0782355
0.0772077
0.0761747
0.0751366
0.0740933
0.0730448
0.071991
0.070932
0.0698677
0.068798
0.067723
0.0666427
0.0655569
0.0644657
0.063369
0.0622669
0.0611592
0.060046
0.0589273
0.0578029
0.056673
0.0555373
0.054396
0.053249
0.0520963
0.0509378
0.0497735
0.0486034
0.0474274
0.0462456
0.0450578
0.0438641
0.0426644
0.0414588
0.0402471
0.0390293
0.0378055
0.0365755
0.0353394
0.187495
0.187036
0.186574
0.186111
0.185645
0.185177
0.184706
0.184233
0.183758
0.18328
0.1828
0.182318
0.181833
0.181346
0.180856
0.180364
0.179869
0.179372
0.178872
0.17837
0.177866
0.177359
0.176849
0.176337
0.175822
0.175305
0.174785
0.174262
0.173737
0.173209
0.172679
0.172146
0.17161
0.171072
0.170531
0.169987
0.16944
0.168891
0.168339
0.167784
0.167227
0.166666
0.166103
0.165537
0.164969
0.164397
0.163823
0.163245
0.162665
0.162082
0.161496
0.160907
0.160315
0.15972
0.159122
0.158521
0.157918
0.157311
0.156701
0.156088
0.155472
0.154853
0.154231
0.153605
0.152977
0.152345
0.151711
0.151073
0.150432
0.149787
0.14914
0.148489
0.147835
0.147178
0.146517
0.145853
0.145186
0.144516
0.143842
0.143165
0.142484
0.1418
0.141112
0.140422
0.139727
0.139029
0.138328
0.137623
0.136915
0.136203
0.135488
0.134769
0.134046
0.13332
0.13259
0.131856
0.131119
0.130378
0.129634
0.128886
0.128134
0.127378
0.126618
0.125855
0.125088
0.124317
0.123542
0.122763
0.121981
0.121194
0.120403
0.119609
0.118811
0.118008
0.117202
0.116391
0.115577
0.114758
0.113936
0.113109
0.112278
0.111443
0.110604
0.10976
0.108913
0.108061
0.107205
0.106344
0.105479
0.10461
0.103737
0.102859
0.101977
0.101091
0.1002
0.0993041
0.0984042
0.0974998
0.0965908
0.0956773
0.0947593
0.0938366
0.0929094
0.0919775
0.0910409
0.0900996
0.0891537
0.088203
0.0872476
0.0862874
0.0853224
0.0843525
0.0833778
0.0823983
0.0814138
0.0804245
0.0794301
0.0784308
0.0774265
0.0764172
0.0754029
0.0743834
0.0733589
0.0723292
0.0712944
0.0702545
0.0692093
0.0681589
0.0671032
0.0660423
0.0649761
0.0639045
0.0628276
0.0617453
0.0606576
0.0595644
0.0584658
0.0573616
0.056252
0.0551368
0.0540161
0.0528897
0.0517577
0.05062
0.0494767
0.0483276
0.0471728
0.0460122
0.0448458
0.0436736
0.0424955
0.0413116
0.0401217
0.0389258
0.037724
0.0365162
0.0353023
0.0340824
0.0328564
0.183815
0.183359
0.182902
0.182442
0.181979
0.181515
0.181048
0.180579
0.180107
0.179634
0.179157
0.178679
0.178198
0.177714
0.177228
0.17674
0.176249
0.175756
0.175261
0.174763
0.174262
0.173759
0.173253
0.172745
0.172234
0.171721
0.171205
0.170687
0.170166
0.169642
0.169116
0.168587
0.168056
0.167522
0.166985
0.166446
0.165903
0.165359
0.164811
0.164261
0.163707
0.163152
0.162593
0.162031
0.161467
0.1609
0.16033
0.159757
0.159182
0.158603
0.158022
0.157438
0.15685
0.15626
0.155667
0.155071
0.154472
0.15387
0.153265
0.152657
0.152046
0.151432
0.150814
0.150194
0.149571
0.148944
0.148314
0.147681
0.147045
0.146406
0.145764
0.145118
0.14447
0.143817
0.143162
0.142504
0.141842
0.141176
0.140508
0.139836
0.139161
0.138482
0.1378
0.137115
0.136426
0.135734
0.135038
0.134339
0.133636
0.13293
0.13222
0.131507
0.13079
0.130069
0.129345
0.128618
0.127886
0.127151
0.126413
0.12567
0.124924
0.124175
0.123421
0.122664
0.121903
0.121138
0.120369
0.119596
0.11882
0.11804
0.117255
0.116467
0.115675
0.114879
0.114079
0.113275
0.112467
0.111655
0.110839
0.110019
0.109194
0.108366
0.107533
0.106697
0.105856
0.105011
0.104161
0.103308
0.10245
0.101588
0.100721
0.0998504
0.0989752
0.0980957
0.0972118
0.0963234
0.0954306
0.0945334
0.0936316
0.0927254
0.0918146
0.0908993
0.0899793
0.0890548
0.0881257
0.0871919
0.0862535
0.0853103
0.0843625
0.0834099
0.0824525
0.0814904
0.0805234
0.0795516
0.078575
0.0775934
0.076607
0.0756156
0.0746193
0.073618
0.0726117
0.0716003
0.0705839
0.0695624
0.0685358
0.0675041
0.0664672
0.0654251
0.0643779
0.0633253
0.0622676
0.0612045
0.0601361
0.0590624
0.0579833
0.0568988
0.0558089
0.0547135
0.0536127
0.0525063
0.0513944
0.050277
0.049154
0.0480253
0.0468911
0.0457511
0.0446055
0.0434541
0.0422969
0.041134
0.0399653
0.0387907
0.0376102
0.0364239
0.0352316
0.0340333
0.0328291
0.0316188
0.0304025
0.180207
0.179755
0.179301
0.178844
0.178386
0.177925
0.177462
0.176996
0.176528
0.176058
0.175585
0.17511
0.174633
0.174153
0.173671
0.173187
0.1727
0.172211
0.171719
0.171225
0.170728
0.170229
0.169727
0.169223
0.168716
0.168207
0.167695
0.16718
0.166663
0.166144
0.165622
0.165097
0.16457
0.16404
0.163507
0.162972
0.162434
0.161893
0.16135
0.160803
0.160255
0.159703
0.159149
0.158592
0.158032
0.157469
0.156903
0.156335
0.155764
0.15519
0.154613
0.154033
0.153451
0.152865
0.152276
0.151685
0.151091
0.150493
0.149893
0.149289
0.148683
0.148073
0.147461
0.146845
0.146227
0.145605
0.14498
0.144352
0.143721
0.143087
0.14245
0.141809
0.141165
0.140518
0.139868
0.139214
0.138558
0.137897
0.137234
0.136567
0.135897
0.135224
0.134547
0.133867
0.133184
0.132497
0.131806
0.131112
0.130415
0.129714
0.12901
0.128302
0.127591
0.126876
0.126158
0.125436
0.12471
0.123981
0.123248
0.122511
0.121771
0.121027
0.120279
0.119527
0.118772
0.118013
0.11725
0.116484
0.115713
0.114939
0.114161
0.113379
0.112593
0.111803
0.111009
0.110211
0.10941
0.108604
0.107794
0.10698
0.106162
0.10534
0.104514
0.103684
0.102849
0.102011
0.101168
0.100321
0.0994696
0.098614
0.0977543
0.0968902
0.0960218
0.095149
0.0942719
0.0933904
0.0925045
0.0916142
0.0907194
0.0898201
0.0889164
0.0880081
0.0870953
0.0861779
0.0852559
0.0843294
0.0833982
0.0824623
0.0815217
0.0805765
0.0796265
0.0786718
0.0777123
0.076748
0.0757789
0.0748049
0.0738261
0.0728424
0.0718537
0.0708601
0.0698616
0.068858
0.0678495
0.0668359
0.0658172
0.0647934
0.0637645
0.0627305
0.0616913
0.0606469
0.0595973
0.0585424
0.0574823
0.0564168
0.055346
0.0542699
0.0531884
0.0521015
0.0510091
0.0499113
0.048808
0.0476992
0.0465849
0.0454649
0.0443394
0.0432082
0.0420714
0.0409289
0.0397807
0.0386268
0.037467
0.0363015
0.0351302
0.033953
0.0327699
0.0315809
0.0303859
0.029185
0.0279781
0.176669
0.176221
0.17577
0.175317
0.174862
0.174405
0.173945
0.173483
0.173019
0.172552
0.172083
0.171611
0.171138
0.170662
0.170183
0.169702
0.169219
0.168733
0.168245
0.167755
0.167262
0.166766
0.166268
0.165768
0.165265
0.164759
0.164251
0.163741
0.163228
0.162712
0.162194
0.161673
0.16115
0.160624
0.160095
0.159564
0.15903
0.158493
0.157954
0.157412
0.156867
0.15632
0.15577
0.155217
0.154661
0.154102
0.153541
0.152977
0.15241
0.15184
0.151268
0.150692
0.150114
0.149533
0.148949
0.148362
0.147772
0.147179
0.146583
0.145984
0.145382
0.144777
0.144169
0.143559
0.142945
0.142328
0.141707
0.141084
0.140458
0.139828
0.139196
0.13856
0.137921
0.137279
0.136633
0.135985
0.135333
0.134678
0.134019
0.133358
0.132693
0.132024
0.131353
0.130678
0.129999
0.129317
0.128632
0.127944
0.127252
0.126556
0.125857
0.125155
0.124449
0.123739
0.123026
0.122309
0.121589
0.120865
0.120138
0.119407
0.118672
0.117934
0.117191
0.116446
0.115696
0.114943
0.114186
0.113425
0.11266
0.111892
0.111119
0.110343
0.109563
0.108779
0.107991
0.107199
0.106404
0.105604
0.1048
0.103992
0.103181
0.102365
0.101545
0.100721
0.0998925
0.0990601
0.0982237
0.097383
0.0965381
0.095689
0.0948357
0.0939781
0.0931162
0.09225
0.0913795
0.0905046
0.0896254
0.0887417
0.0878536
0.0869611
0.0860641
0.0851627
0.0842567
0.0833462
0.0824312
0.0815116
0.0805873
0.0796585
0.078725
0.0777868
0.076844
0.0758964
0.0749441
0.0739871
0.0730252
0.0720586
0.0710871
0.0701108
0.0691295
0.0681434
0.0671523
0.0661563
0.0651553
0.0641493
0.0631383
0.0621222
0.061101
0.0600747
0.0590433
0.0580068
0.056965
0.0559181
0.0548659
0.0538084
0.0527457
0.0516776
0.0506043
0.0495255
0.0484413
0.0473518
0.0462567
0.0451562
0.0440503
0.0429387
0.0418216
0.040699
0.0395707
0.0384368
0.0372972
0.0361519
0.0350008
0.0338441
0.0326815
0.0315131
0.0303389
0.0291588
0.0279728
0.0267809
0.0255831
0.173202
0.172756
0.172309
0.171859
0.171407
0.170953
0.170497
0.170038
0.169577
0.169114
0.168648
0.16818
0.16771
0.167238
0.166763
0.166285
0.165806
0.165323
0.164839
0.164352
0.163862
0.163371
0.162876
0.162379
0.16188
0.161378
0.160874
0.160367
0.159858
0.159346
0.158832
0.158315
0.157795
0.157273
0.156748
0.156221
0.155691
0.155158
0.154623
0.154084
0.153544
0.153
0.152454
0.151905
0.151354
0.150799
0.150242
0.149682
0.149119
0.148554
0.147985
0.147414
0.14684
0.146263
0.145683
0.1451
0.144515
0.143926
0.143335
0.14274
0.142143
0.141542
0.140939
0.140332
0.139723
0.13911
0.138495
0.137876
0.137254
0.136629
0.136001
0.13537
0.134736
0.134098
0.133458
0.132814
0.132167
0.131516
0.130863
0.130206
0.129546
0.128882
0.128215
0.127545
0.126872
0.126195
0.125515
0.124831
0.124144