TITLE = "TEST_PROBLEM"
FILETYPE = FULL
VARIABLES = "x-direction, [m]"  "y-direction, [m]" "rho<sub>N2</sub> [kg/m<sup>3</sup>] "  "rho<sub>O2</sub> [kg/m<sup>3</sup>] "  "rho<sub>NO</sub> [kg/m<sup>3</sup>] "  "rho<sub>N</sub> [kg/m<sup>3</sup>] "  "rho<sub>O</sub> [kg/m<sup>3</sup>] "  "rho<sub>N2p</sub> [kg/m<sup>3</sup>] "  "rho<sub>O2p</sub> [kg/m<sup>3</sup>] "  "rho<sub>NOp</sub> [kg/m<sup>3</sup>] "  "rho<sub>Np</sub> [kg/m<sup>3</sup>] "  "rho<sub>Op</sub> [kg/m<sup>3</sup>] "  "rho<sub>e</sub> [kg/m<sup>3</sup>] "  "u[m/s] "  "v[m/s] "  "T<sub>tra</sub> [K] "  
ZONE
T = "CPU number: 0"
NODES = 7748
ELEMENTS = 7548
F = FEPOINT
ET = QUADRILATERAL
-0.1 0 0.000207272 6.29655e-05 2.57893e-27 1.05067e-26 8.73287e-28 6.38095e-27 0 0 8.92187e-27 0 1.00001e-14 7649.99 3.38813e-21 254.027 
-0.0900451 0 0.00020731 6.29772e-05 2.07242e-27 3.16116e-25 8.82793e-27 1.98077e-25 0 0 7.16961e-27 0 1.00019e-14 7649.73 -6.77626e-21 254.839 
-0.0810811 0 0.000208092 6.32148e-05 0 1.11274e-23 6.56059e-25 9.54552e-24 0 0 2.99878e-25 0 1.00397e-14 7641.21 -1.49078e-19 290.62 
-0.0730093 0 0.00021942 6.6656e-05 0 1.23992e-22 4.54421e-23 3.31695e-22 0 0 4.42769e-23 0 1.05862e-14 7432.28 1.73472e-18 1450.25 
-0.065741 0 0.000339149 0.000103027 1.02346e-21 2.36861e-22 1.92826e-22 7.06332e-22 0 0 1.48829e-22 0 1.63627e-14 5874.62 -2.77556e-17 9873.67 
-0.0591961 0 0.000672942 0.000204428 3.17995e-21 6.29795e-22 5.41329e-22 1.58348e-21 0 0 4.24064e-22 0 3.24669e-14 3255.35 0 22131.5 
-0.0533027 0 0.00102257 0.000310638 4.51398e-21 1.28219e-21 1.1145e-21 2.49511e-21 0 0 7.55784e-22 0 4.93351e-14 1677.45 1.11022e-16 27519.8 
-0.0479958 0 0.00117932 0.000358257 4.6547e-21 1.9682e-21 1.55223e-21 2.42401e-21 0 0 7.92457e-22 0 5.68977e-14 1181.01 0 28708.6 
-0.0432171 0 0.00122527 0.000372216 4.55807e-21 2.74372e-21 1.69347e-21 2.66552e-21 0 0 7.62593e-22 0 5.91147e-14 997.099 0 29115.8 
-0.038914 0 0.00123873 0.000376304 4.75411e-21 3.22458e-21 1.82656e-21 3.14611e-21 0 0 8.40166e-22 0 5.9764e-14 904.616 0 29256.4 
-0.0350391 0 0.00124724 0.000378889 5.13794e-21 3.66543e-21 2.07845e-21 3.7005e-21 0 0 9.09413e-22 0 6.01746e-14 829.397 -4.44089e-16 29349.9 
-0.0315498 0 0.00125433 0.000381042 5.61608e-21 4.07777e-21 2.43125e-21 4.19791e-21 0 0 1.01572e-21 0 6.05165e-14 761.349 0 29429.7 
-0.0284077 0 0.00126038 0.00038288 6.13383e-21 4.51008e-21 2.84557e-21 4.62413e-21 0 0 1.15205e-21 0 6.08084e-14 699.153 -4.44089e-16 29499.6 
-0.0255782 0 0.00126555 0.000384452 6.62267e-21 4.95693e-21 3.2984e-21 5.03972e-21 0 0 1.28934e-21 0 6.10581e-14 642.139 0 29560.8 
-0.0230302 0 0.00126999 0.000385799 7.11828e-21 5.41237e-21 3.78231e-21 5.42299e-21 0 0 1.43079e-21 0 6.1272e-14 589.763 0 29614.8 
-0.0207356 0 0.00127379 0.000386955 7.55141e-21 5.86025e-21 4.27774e-21 5.74142e-21 0 0 1.56856e-21 0 6.14556e-14 541.569 4.44089e-16 29662.6 
-0.0186692 0 0.00127706 0.000387947 7.8929e-21 6.2617e-21 4.76544e-21 6.04431e-21 0 0 1.70171e-21 0 6.16131e-14 497.176 -4.44089e-16 29705 
-0.0168082 0 0.00127986 0.000388798 8.17873e-21 6.63657e-21 5.22839e-21 6.34551e-21 0 0 1.82247e-21 0 6.17484e-14 456.254 0 29742.9 
-0.0151322 0 0.00128227 0.000389529 8.45277e-21 6.97125e-21 5.65923e-21 6.63616e-21 0 0 1.93352e-21 0 6.18644e-14 418.519 -4.44089e-16 29776.8 
-0.0136227 0 0.00128433 0.000390156 8.76785e-21 7.27465e-21 6.05351e-21 6.92501e-21 0 0 2.03832e-21 0 6.19639e-14 383.718 4.44089e-16 29807.1 
-0.0122632 0 0.00128609 0.000390692 9.16968e-21 7.57728e-21 6.41833e-21 7.19265e-21 0 0 2.14192e-21 0 6.20491e-14 351.627 4.44089e-16 29834.5 
-0.0110386 0 0.0012876 0.00039115 9.69674e-21 7.90134e-21 6.76862e-21 7.42974e-21 0 0 2.24676e-21 0 6.21218e-14 322.042 4.44089e-16 29859.4 
-0.00993545 0 0.00128888 0.00039154 1.03739e-20 8.27585e-21 7.12686e-21 7.64841e-21 0 0 2.35238e-21 0 6.21838e-14 294.778 4.44089e-16 29882 
-0.00894165 0 0.00128997 0.00039187 1.124e-20 8.71546e-21 7.52395e-21 7.84968e-21 0 0 2.47816e-21 0 6.22362e-14 269.665 4.44089e-16 29902.8 
-0.00804625 0 0.00129089 0.000392149 1.23328e-20 9.22902e-21 7.98956e-21 8.05342e-21 0 0 2.63722e-21 0 6.22804e-14 246.544 -4.44089e-16 29921.9 
-0.0072394 0 0.00129165 0.00039238 1.36585e-20 9.86646e-21 8.54766e-21 8.28147e-21 0 0 2.82363e-21 0 6.23171e-14 225.268 0 29939.7 
-0.00651221 0 0.00129227 0.00039257 1.52645e-20 1.07184e-20 9.23063e-21 8.57459e-21 0 0 3.05176e-21 0 6.23473e-14 205.698 4.44089e-16 29956.5 
-0.00585668 0 0.00129278 0.000392722 1.7238e-20 1.17904e-20 1.00776e-20 8.96088e-21 0 0 3.33936e-21 0 6.23715e-14 187.707 4.44089e-16 29972.4 
-0.00526561 0 0.00129316 0.000392841 1.96389e-20 1.31051e-20 1.11107e-20 9.44002e-21 0 0 3.68835e-21 0 6.23903e-14 171.173 -4.44089e-16 29987.8 
-0.00473248 0 0.00129345 0.000392928 2.24148e-20 1.47221e-20 1.2345e-20 1.00356e-20 0 0 4.12409e-21 0 6.24042e-14 155.982 0 30002.6 
-0.00425143 0 0.00129365 0.000392987 2.55663e-20 1.66099e-20 1.37862e-20 1.07975e-20 0 0 4.66265e-21 0 6.24136e-14 142.027 4.44089e-16 30017.2 
-0.00381717 0 0.00129375 0.000393019 2.9155e-20 1.88479e-20 1.54421e-20 1.17758e-20 0 0 5.29909e-21 0 6.24187e-14 129.208 -4.44089e-16 30031.8 
-0.00342491 0 0.00129378 0.000393027 3.31949e-20 2.15141e-20 1.73398e-20 1.296e-20 0 0 6.05027e-21 0 6.24199e-14 117.431 0 30046.3 
-0.00307034 0 0.00129373 0.000393012 3.77921e-20 2.4588e-20 1.94559e-20 1.43929e-20 0 0 6.90737e-21 0 6.24175e-14 106.607 0 30060.9 
-0.00274956 0 0.00129361 0.000392976 4.28498e-20 2.81019e-20 2.17694e-20 1.61024e-20 0 0 7.85172e-21 0 6.24119e-14 96.6528 0 30075.6 
-0.00245903 0 0.00129343 0.000392922 4.84314e-20 3.20598e-20 2.42924e-20 1.81195e-20 0 0 8.87919e-21 0 6.24033e-14 87.4908 0 30090.5 
-0.00219557 0 0.0012932 0.000392852 5.45639e-20 3.63813e-20 2.69827e-20 2.04491e-20 0 0 1.00431e-20 0 6.23921e-14 79.0478 -4.44089e-16 30105.5 
-0.00195627 0 0.00129292 0.000392767 6.10379e-20 4.09612e-20 2.97974e-20 2.29835e-20 0 0 1.13467e-20 0 6.23787e-14 71.2555 -8.88178e-16 30120.6 
-0.00173849 0 0.0012926 0.000392671 6.78922e-20 4.56956e-20 3.27116e-20 2.56351e-20 0 0 1.27847e-20 0 6.23635e-14 64.0496 -4.44089e-16 30135.7 
-0.00153985 0 0.00129226 0.000392567 7.50376e-20 5.06224e-20 3.57148e-20 2.83391e-20 0 0 1.42661e-20 0 6.23469e-14 57.3699 0 30150.8 
-0.00135815 0 0.0012919 0.000392457 8.22814e-20 5.56716e-20 3.87468e-20 3.10339e-20 0 0 1.56987e-20 0 6.23295e-14 51.1598 0 30165.5 
-0.0011914 0 0.00129153 0.000392344 8.94094e-20 6.07083e-20 4.17542e-20 3.3796e-20 0 0 1.70987e-20 0 6.23115e-14 45.366 -4.44089e-16 30179.8 
-0.00103776 0 0.00129116 0.000392232 9.62326e-20 6.57887e-20 4.46965e-20 3.65944e-20 0 0 1.8447e-20 0 6.22937e-14 39.9378 0 30193.6 
-0.000895534 0 0.0012908 0.000392124 1.0292e-19 7.0872e-20 4.7483e-20 3.92497e-20 0 0 1.9764e-20 0 6.22765e-14 34.8273 4.44089e-16 30206.6 
-0.000763167 0 0.00129047 0.000392022 1.09226e-19 7.56265e-20 5.00797e-20 4.17846e-20 0 0 2.10655e-20 0 6.22602e-14 29.9887 8.88178e-16 30218.7 
-0.000639199 0 0.00129016 0.000391929 1.14914e-19 7.98509e-20 5.24722e-20 4.40505e-20 0 0 2.226e-20 0 6.22455e-14 25.3777 0 30229.7 
-0.000522264 0 0.00128989 0.000391848 1.20035e-19 8.37316e-20 5.4589e-20 4.5975e-20 0 0 2.3283e-20 0 6.22327e-14 20.9511 4.44089e-16 30239.3 
-0.000411077 0 0.00128968 0.000391782 1.24342e-19 8.70779e-20 5.63627e-20 4.7666e-20 0 0 2.41932e-20 0 6.22222e-14 16.6668 -4.44089e-16 30247.3 
-0.000304414 0 0.00128952 0.000391733 1.27559e-19 8.95082e-20 5.77581e-20 4.8944e-20 0 0 2.49707e-20 0 6.22144e-14 12.4828 -4.44089e-16 30253.8 
-0.0002011 0 0.00128942 0.000391703 1.29715e-19 9.13407e-20 5.87359e-20 4.98722e-20 0 0 2.54697e-20 0 6.22096e-14 8.3575 0 30258.6 
-0.0001 0 0.00128939 0.000391694 1.31015e-19 9.25678e-20 5.92485e-20 5.04047e-20 0 0 2.56957e-20 0 6.22083e-14 4.26777 0 30261.5 
0 0 0.0012894 0.000391697 1.3144e-19 9.29465e-20 5.93811e-20 5.04902e-20 0 0 2.57715e-20 0 6.22087e-14 0.747656 3.4787 30262.5 
-0.100008 0.00249999 0.000207272 6.29654e-05 1.03004e-25 8.89025e-27 4.51697e-28 5.61969e-27 0 0 3.37924e-27 0 1.00001e-14 7649.99 0.000116104 254.02 
-0.0900826 0.00240404 0.00020731 6.29771e-05 2.33716e-24 3.18018e-25 6.98283e-27 1.16886e-25 0 0 3.62397e-27 0 1.00019e-14 7649.74 0.0030317 254.826 
-0.0811405 0.00230108 0.000208094 6.32152e-05 2.55099e-23 6.99612e-24 4.27822e-25 5.80081e-24 0 0 1.51741e-25 0 1.00397e-14 7641.34 0.076018 290.021 
-0.0730844 0.00219495 0.00021934 6.66315e-05 2.66848e-23 6.56718e-23 2.91405e-23 1.84314e-22 0 0 2.24047e-23 0 1.05823e-14 7435.29 1.46936 1432.25 
-0.065827 0.00208853 0.000337938 0.000102659 1.88874e-21 1.55818e-22 3.05148e-22 4.45066e-22 0 0 1.16388e-22 0 1.63042e-14 5886.83 7.12488 9810.04 
-0.0592893 0.00198391 0.000670284 0.00020362 4.60888e-21 6.5729e-22 7.63773e-22 1.26902e-21 0 0 3.77515e-22 0 3.23387e-14 3268.95 13.8461 22064 
-0.0534003 0.00188255 0.00102033 0.00030996 5.03498e-21 1.04152e-21 1.23378e-21 2.02005e-21 0 0 7.01491e-22 0 4.92273e-14 1681.8 19.8485 27493 
-0.0480956 0.00178546 0.00117839 0.000357975 4.61654e-21 1.57234e-21 1.62755e-21 2.10115e-21 0 0 8.12438e-22 0 5.6853e-14 1181.54 25.6536 28695.5 
-0.0433175 0.00169329 0.001225 0.000372133 4.47528e-21 2.70642e-21 1.75115e-21 2.64129e-21 0 0 8.07556e-22 0 5.91016e-14 996.695 27.4411 29109.1 
-0.0390137 0.0016064 0.00123862 0.000376273 4.78224e-21 3.27586e-21 1.87074e-21 3.23036e-21 0 0 8.57288e-22 0 5.97591e-14 904.28 27.4078 29252.4 
-0.0351373 0.00152495 0.00124717 0.000378868 5.1663e-21 3.7401e-21 2.1159e-21 3.80327e-21 0 0 9.30654e-22 0 6.01712e-14 829.271 26.8474 29347 
-0.0316459 0.00144896 0.00125427 0.000381024 5.65146e-21 4.16136e-21 2.46065e-21 4.29844e-21 0 0 1.03879e-21 0 6.05136e-14 761.356 26.2258 29427.5 
-0.0285012 0.0013783 0.00126032 0.000382863 6.18477e-21 4.58708e-21 2.86903e-21 4.71795e-21 0 0 1.16886e-21 0 6.08057e-14 699.23 25.6546 29497.7 
-0.0256688 0.00131281 0.0012655 0.000384437 6.63884e-21 5.02236e-21 3.31995e-21 5.1097e-21 0 0 1.30273e-21 0 6.10556e-14 642.248 25.1475 29559.3 
-0.0231177 0.00125224 0.00126994 0.000385785 7.11651e-21 5.46467e-21 3.80266e-21 5.4697e-21 0 0 1.44364e-21 0 6.12698e-14 589.884 24.6994 29613.6 
-0.02082 0.00119633 0.00127375 0.000386942 7.55067e-21 5.90372e-21 4.29749e-21 5.78338e-21 0 0 1.58305e-21 0 6.14536e-14 541.692 24.3026 29661.6 
-0.0187504 0.00114477 0.00127702 0.000387936 7.8972e-21 6.29955e-21 4.7848e-21 6.08431e-21 0 0 1.71026e-21 0 6.16114e-14 497.295 23.9494 29704.2 
-0.0168862 0.00109729 0.00127983 0.000388789 8.18177e-21 6.66482e-21 5.24751e-21 6.38077e-21 0 0 1.82479e-21 0 6.17469e-14 456.368 23.6338 29742.2 
-0.015207 0.00105356 0.00128224 0.000389521 8.4574e-21 6.99339e-21 5.67698e-21 6.66815e-21 0 0 1.93602e-21 0 6.18632e-14 418.625 23.3513 29776.2 
-0.0136945 0.00101332 0.00128431 0.000390149 8.77982e-21 7.29383e-21 6.06978e-21 6.95031e-21 0 0 2.04412e-21 0 6.19629e-14 383.817 23.0968 29806.7 
-0.0123319 0.00097626 0.00128608 0.000390687 9.17563e-21 7.59597e-21 6.43313e-21 7.21221e-21 0 0 2.14793e-21 0 6.20483e-14 351.719 22.8665 29834.2 
-0.0111043 0.000942126 0.00128759 0.000391147 9.70772e-21 7.91965e-21 6.78245e-21 7.44655e-21 0 0 2.24961e-21 0 6.21213e-14 322.128 22.6573 29859.2 
-0.00999827 0.000910662 0.00128888 0.000391538 1.03923e-20 8.28499e-21 7.1405e-21 7.66134e-21 0 0 2.355e-21 0 6.21835e-14 294.859 22.4664 29881.9 
-0.00900168 0.000881627 0.00128997 0.00039187 1.12624e-20 8.71811e-21 7.53698e-21 7.8617e-21 0 0 2.48059e-21 0 6.22361e-14 269.741 22.2916 29902.7 
-0.00810356 0.000854802 0.00129089 0.000392149 1.23578e-20 9.23689e-21 8.00171e-21 8.06514e-21 0 0 2.63897e-21 0 6.22805e-14 246.617 22.131 29921.9 
-0.00729406 0.000829979 0.00129166 0.000392382 1.36657e-20 9.88699e-21 8.5615e-21 8.29184e-21 0 0 2.82832e-21 0 6.23174e-14 225.338 21.9829 29939.8 
-0.0065643 0.00080697 0.00129228 0.000392573 1.52862e-20 1.074e-20 9.24768e-21 8.57825e-21 0 0 3.05714e-21 0 6.23477e-14 205.767 21.8461 29956.6 
-0.00590627 0.000785599 0.00129279 0.000392726 1.72727e-20 1.18032e-20 1.00946e-20 8.95515e-21 0 0 3.34025e-21 0 6.23721e-14 187.774 21.7194 29972.6 
-0.00531276 0.000765706 0.00129318 0.000392846 1.95998e-20 1.31126e-20 1.11253e-20 9.43242e-21 0 0 3.69291e-21 0 6.23911e-14 171.239 21.602 29987.9 
-0.00477724 0.000747146 0.00129347 0.000392934 2.23372e-20 1.4729e-20 1.23563e-20 1.00328e-20 0 0 4.134e-21 0 6.24051e-14 156.047 21.4934 30002.8 
-0.00429386 0.000729785 0.00129367 0.000392994 2.55661e-20 1.66281e-20 1.37969e-20 1.08049e-20 0 0 4.66704e-21 0 6.24146e-14 142.092 21.3931 30017.5 
-0.00385731 0.000713501 0.00129378 0.000393027 2.9188e-20 1.88771e-20 1.54554e-20 1.17939e-20 0 0 5.2902e-21 0 6.24199e-14 129.273 21.3011 30032 
-0.0034628 0.000698185 0.0012938 0.000393035 3.31592e-20 2.15527e-20 1.73488e-20 1.29995e-20 0 0 6.04241e-21 0 6.24212e-14 117.496 21.2172 30046.6 
-0.00310602 0.000683737 0.00129376 0.000393021 3.76833e-20 2.46431e-20 1.94625e-20 1.44512e-20 0 0 6.91221e-21 0 6.24189e-14 106.671 21.1417 30061.2 
-0.00278306 0.000670065 0.00129364 0.000392986 4.2793e-20 2.81589e-20 2.17812e-20 1.61768e-20 0 0 7.85936e-21 0 6.24133e-14 96.7171 21.0747 30075.9 
-0.00249039 0.000657087 0.00129346 0.000392932 4.85724e-20 3.20877e-20 2.43036e-20 1.81933e-20 0 0 8.89684e-21 0 6.24048e-14 87.5548 21.0165 30090.8 
-0.0022248 0.00064473 0.00129323 0.000392862 5.46969e-20 3.63719e-20 2.69967e-20 2.04816e-20 0 0 1.00695e-20 0 6.23937e-14 79.1115 20.9675 30105.9 
-0.0019834 0.000632926 0.00129295 0.000392778 6.11042e-20 4.09343e-20 2.98241e-20 2.2975e-20 0 0 1.13755e-20 0 6.23804e-14 71.3185 20.928 30121 
-0.00176355 0.000621613 0.00129264 0.000392682 6.80757e-20 4.57272e-20 3.27563e-20 2.5611e-20 0 0 1.27904e-20 0 6.23652e-14 64.112 20.8982 30136.1 
-0.00156284 0.000610738 0.0012923 0.000392578 7.51971e-20 5.07007e-20 3.57697e-20 2.83223e-20 0 0 1.42388e-20 0 6.23486e-14 57.4315 20.8781 30151.2 
-0.0013791 0.00060025 0.00129194 0.000392468 8.23848e-20 5.57596e-20 3.88105e-20 3.10546e-20 0 0 1.56781e-20 0 6.23312e-14 51.2206 20.8678 30166 
-0.00121031 0.000590104 0.00129157 0.000392356 8.9551e-20 6.08414e-20 4.18268e-20 3.3835e-20 0 0 1.71053e-20 0 6.23134e-14 45.4259 20.867 30180.3 
-0.00105465 0.000580259 0.0012912 0.000392244 9.63019e-20 6.59264e-20 4.47719e-20 3.66234e-20 0 0 1.84882e-20 0 6.22955e-14 39.9969 20.875 30194.1 
-0.000910422 0.000570678 0.00129084 0.000392135 1.02867e-19 7.0932e-20 4.75722e-20 3.92964e-20 0 0 1.98256e-20 0 6.22783e-14 34.8858 20.8911 30207.2 
-0.000776058 0.000561327 0.00129051 0.000392033 1.09359e-19 7.56281e-20 5.01847e-20 4.18411e-20 0 0 2.11192e-20 0 6.2262e-14 30.0468 20.9142 30219.3 
-0.000650102 0.000552175 0.0012902 0.00039194 1.15215e-19 7.98774e-20 5.25764e-20 4.41421e-20 0 0 2.23156e-20 0 6.22473e-14 25.4356 20.9429 30230.2 
-0.00053119 0.000543193 0.00128993 0.00039186 1.20214e-19 8.37523e-20 5.46857e-20 4.61401e-20 0 0 2.33583e-20 0 6.22345e-14 21.0094 20.9756 30239.9 
-0.000418034 0.000534356 0.00128971 0.000391793 1.24346e-19 8.7064e-20 5.64555e-20 4.78462e-20 0 0 2.42644e-20 0 6.2224e-14 16.7259 21.0105 30248 
-0.000309412 0.00052564 0.00128955 0.000391744 1.27546e-19 8.95045e-20 5.78461e-20 4.91473e-20 0 0 2.50179e-20 0 6.22162e-14 12.5435 21.0455 30254.5 
-0.000204149 0.000517022 0.00128945 0.000391714 1.29806e-19 9.12806e-20 5.8821e-20 5.00773e-20 0 0 2.55263e-20 0 6.22114e-14 8.42064 21.0784 30259.2 
-0.000101109 0.000508482 0.00128943 0.000391706 1.31124e-19 9.24162e-20 5.93443e-20 5.05807e-20 0 0 2.57747e-20 0 6.22101e-14 4.33421 21.1065 30262.2 
8.20209e-07 0.000499999 0.00128944 0.000391708 1.31545e-19 9.27731e-20 5.94881e-20 5.06802e-20 0 0 2.58527e-20 0 6.22105e-14 0.0883448 21.1266 30263.2 
-0.100003 0.0050011 0.000207271 6.29654e-05 1.09421e-25 6.012e-27 1.83009e-28 3.67513e-27 0 0 0 0 1.00001e-14 7649.99 0.000270644 254.019 
-0.0901086 0.00481128 0.000207309 6.29769e-05 2.53158e-24 1.82934e-25 4.45143e-27 2.13311e-26 0 0 0 0 1.00019e-14 7649.75 0.00808854 254.795 
-0.0811893 0.0046074 0.000208088 6.32135e-05 2.85437e-23 1.48653e-24 1.75035e-25 9.86707e-25 0 0 1.8061e-24 0 1.00395e-14 7641.65 0.22979 288.627 
-0.0731499 0.00439714 0.000219126 6.65665e-05 7.32294e-23 3.05526e-24 9.84269e-24 1.66563e-23 0 0 2.10048e-24 0 1.0572e-14 7442.3 4.5231 1390.56 
-0.0659044 0.00418619 0.000335284 0.000101853 1.98988e-21 8.4727e-23 3.52445e-22 1.28078e-22 0 0 6.51659e-23 0 1.61762e-14 5916.13 23.7129 9661.32 
-0.0593748 0.0039787 0.00066474 0.000201936 4.58374e-21 7.73848e-22 9.42842e-22 8.75301e-22 0 0 3.20622e-22 0 3.20712e-14 3303.03 43.3317 21907.6 
-0.0534909 0.00377761 0.00101588 0.000308606 4.85686e-21 1.05897e-21 1.50422e-21 1.40065e-21 0 0 6.79257e-22 0 4.90122e-14 1694.54 49.9767 27434.5 
-0.0481892 0.00358492 0.00117661 0.000357435 4.52501e-21 1.55586e-21 1.91172e-21 1.7964e-21 0 0 8.74492e-22 0 5.67671e-14 1184.85 55.0753 28666.9 
-0.0434123 0.00340193 0.00122453 0.000371991 4.52151e-21 2.94855e-21 1.95429e-21 2.87663e-21 0 0 9.05331e-22 0 5.9079e-14 997.079 56.1939 29093.3 
-0.0391086 0.00322937 0.00123846 0.000376224 4.87278e-21 3.49025e-21 2.03132e-21 3.53093e-21 0 0 9.36131e-22 0 5.97513e-14 904.306 55.5499 29242.5 
-0.0352312 0.00306756 0.00124705 0.000378831 5.25875e-21 3.98278e-21 2.23657e-21 4.09547e-21 0 0 1.00157e-21 0 6.01653e-14 829.499 54.3744 29339.5 
-0.0317381 0.00291653 0.00125415 0.000380988 5.74592e-21 4.40347e-21 2.55088e-21 4.56599e-21 0 0 1.09894e-21 0 6.05078e-14 761.747 53.1391 29421.4 
-0.0285912 0.00277608 0.0012602 0.000382827 6.26439e-21 4.80131e-21 2.93948e-21 4.9598e-21 0 0 1.2192e-21 0 6.07999e-14 699.704 51.995 29492.8 
-0.0257564 0.00264584 0.00126538 0.000384401 6.71897e-21 5.20212e-21 3.3809e-21 5.30637e-21 0 0 1.34827e-21 0 6.105e-14 642.752 50.9689 29555.2 
-0.0232025 0.00252536 0.00126982 0.000385751 7.19522e-21 5.61158e-21 3.85775e-21 5.62121e-21 0 0 1.48365e-21 0 6.12644e-14 590.388 50.0553 29610.2 
-0.0209019 0.00241409 0.00127364 0.000386911 7.62407e-21 6.02413e-21 4.34891e-21 5.91348e-21 0 0 1.61763e-21 0 6.14485e-14 542.181 49.2419 29658.7 
-0.0188294 0.00231147 0.00127692 0.000387906 7.96807e-21 6.39978e-21 4.8334e-21 6.19773e-21 0 0 1.73616e-21 0 6.16067e-14 497.759 48.5154 29701.8 
-0.0169622 0.0022169 0.00127974 0.000388762 8.23495e-21 6.74155e-21 5.29381e-21 6.47716e-21 0 0 1.84738e-21 0 6.17426e-14 456.803 47.8643 29740.2 
-0.0152801 0.00212979 0.00128216 0.000389497 8.49994e-21 7.05504e-21 5.71975e-21 6.75166e-21 0 0 1.95617e-21 0 6.18593e-14 419.032 47.2786 29774.5 
-0.0137646 0.00204957 0.00128424 0.000390128 8.8083e-21 7.34871e-21 6.109e-21 7.01771e-21 0 0 2.06149e-21 0 6.19595e-14 384.198 46.7494 29805.3 
-0.0123991 0.00197568 0.00128602 0.000390669 9.19553e-21 7.6457e-21 6.46895e-21 7.26648e-21 0 0 2.16447e-21 0 6.20455e-14 352.075 46.2693 29833.1 
-0.0111687 0.00190758 0.00128754 0.000391132 9.71475e-21 7.96308e-21 6.81557e-21 7.49185e-21 0 0 2.26113e-21 0 6.21189e-14 322.464 45.8317 29858.2 
-0.0100599 0.00184478 0.00128884 0.000391526 1.04076e-20 8.31662e-21 7.17188e-21 7.698e-21 0 0 2.36185e-21 0 6.21814e-14 295.177 45.4313 29881.1 
-0.00906062 0.00178679 0.00128994 0.00039186 1.12758e-20 8.74057e-21 7.56612e-21 7.89404e-21 0 0 2.48563e-21 0 6.22345e-14 270.044 45.0634 29902.1 
-0.00815985 0.00173319 0.00129086 0.000392141 1.23332e-20 9.26262e-21 8.02838e-21 8.0919e-21 0 0 2.64427e-21 0 6.22793e-14 246.908 44.724 29921.5 
-0.00734777 0.00168355 0.00129164 0.000392376 1.36241e-20 9.92497e-21 8.58865e-21 8.31435e-21 0 0 2.83415e-21 0 6.23166e-14 225.619 44.4099 29939.5 
-0.00661548 0.00163752 0.00129227 0.00039257 1.52931e-20 1.07673e-20 9.27697e-21 8.5913e-21 0 0 3.06385e-21 0 6.23473e-14 206.04 44.1182 29956.4 
-0.00595498 0.00159473 0.00129279 0.000392726 1.73008e-20 1.18076e-20 1.0122e-20 8.95245e-21 0 0 3.34534e-21 0 6.2372e-14 188.041 43.8468 29972.5 
-0.00535905 0.00155488 0.00129319 0.000392847 1.9542e-20 1.31084e-20 1.11476e-20 9.42321e-21 0 0 3.70232e-21 0 6.23913e-14 171.501 43.5937 29987.9 
-0.00482116 0.00151767 0.00129348 0.000392937 2.221e-20 1.47204e-20 1.23725e-20 1.00322e-20 0 0 4.14855e-21 0 6.24057e-14 156.306 43.3579 30002.9 
-0.00433544 0.00148283 0.00129369 0.000392999 2.55185e-20 1.66405e-20 1.38103e-20 1.08227e-20 0 0 4.67843e-21 0 6.24154e-14 142.348 43.1383 30017.6 
-0.00389659 0.00145014 0.0012938 0.000393033 2.92185e-20 1.89149e-20 1.54698e-20 1.18256e-20 0 0 5.30131e-21 0 6.24209e-14 129.527 42.9345 30032.2 
-0.00349983 0.00141937 0.00129383 0.000393043 3.30863e-20 2.16039e-20 1.73566e-20 1.30565e-20 0 0 6.04439e-21 0 6.24224e-14 117.748 42.7463 30046.8 
-0.00314082 0.00139031 0.00129379 0.00039303 3.7491e-20 2.46961e-20 1.94664e-20 1.4534e-20 0 0 6.89841e-21 0 6.24204e-14 106.922 42.5738 30061.5 
-0.00281566 0.0013628 0.00129368 0.000392996 4.26697e-20 2.82009e-20 2.17893e-20 1.62767e-20 0 0 7.85424e-21 0 6.2415e-14 96.9662 42.4174 30076.3 
-0.00252081 0.00133666 0.0012935 0.000392944 4.85168e-20 3.20953e-20 2.43105e-20 1.82845e-20 0 0 8.92709e-21 0 6.24067e-14 87.8021 42.2776 30091.2 
-0.00225307 0.00131176 0.00129327 0.000392874 5.44744e-20 3.63197e-20 2.70066e-20 2.05244e-20 0 0 1.01188e-20 0 6.23957e-14 79.3565 42.1548 30106.3 
-0.00200953 0.00128795 0.001293 0.000392791 6.0829e-20 4.08661e-20 2.98482e-20 2.2966e-20 0 0 1.14202e-20 0 6.23825e-14 71.5611 42.0496 30121.5 
-0.00178755 0.00126512 0.00129269 0.000392697 6.80192e-20 4.5737e-20 3.28009e-20 2.55755e-20 0 0 1.28076e-20 0 6.23674e-14 64.3517 41.9623 30136.7 
-0.00158474 0.00124316 0.00129235 0.000392593 7.5212e-20 5.07781e-20 3.58264e-20 2.83017e-20 0 0 1.42262e-20 0 6.2351e-14 57.668 41.8932 30151.8 
-0.0013989 0.00122196 0.00129199 0.000392484 8.23189e-20 5.58477e-20 3.88782e-20 3.10838e-20 0 0 1.56539e-20 0 6.23336e-14 51.4535 41.8422 30166.6 
-0.00122804 0.00120144 0.00129162 0.000392372 8.96128e-20 6.09679e-20 4.1906e-20 3.38796e-20 0 0 1.70935e-20 0 6.23158e-14 45.655 41.8089 30181 
-0.0010703 0.00118152 0.00129125 0.00039226 9.66186e-20 6.60483e-20 4.48571e-20 3.66513e-20 0 0 1.85019e-20 0 6.2298e-14 40.2222 41.7922 30194.8 
-0.000924012 0.00116213 0.0012909 0.000392151 1.03346e-19 7.0925e-20 4.76756e-20 3.9346e-20 0 0 1.98176e-20 0 6.22808e-14 35.1072 41.7912 30208 
-0.000787596 0.00114319 0.00129056 0.000392049 1.09845e-19 7.55583e-20 5.03083e-20 4.19027e-20 0 0 2.10985e-20 0 6.22645e-14 30.2644 41.8041 30220.1 
-0.000659596 0.00112465 0.00129025 0.000391956 1.15582e-19 7.98889e-20 5.27031e-20 4.4242e-20 0 0 2.2331e-20 0 6.22498e-14 25.6498 41.8288 30231.1 
-0.000538649 0.00110644 0.00128998 0.000391875 1.20382e-19 8.37654e-20 5.48081e-20 4.63038e-20 0 0 2.34145e-20 0 6.2237e-14 21.2207 41.8629 30240.8 
-0.000423466 0.00108853 0.00128976 0.000391808 1.24298e-19 8.70164e-20 5.65757e-20 4.80224e-20 0 0 2.4356e-20 0 6.22264e-14 16.9353 41.9037 30249 
-0.000312825 0.00107085 0.0012896 0.000391759 1.27716e-19 8.9456e-20 5.79623e-20 4.93724e-20 0 0 2.5088e-20 0 6.22186e-14 12.7519 41.9481 30255.5 
-0.000205552 0.00105337 0.0012895 0.000391729 1.30341e-19 9.11865e-20 5.89326e-20 5.03315e-20 0 0 2.5586e-20 0 6.22137e-14 8.6294 41.9929 30260.2 
-0.000100512 0.00103604 0.00128948 0.000391721 1.31637e-19 9.22067e-20 5.94593e-20 5.0829e-20 0 0 2.5863e-20 0 6.22125e-14 4.54487 42.0344 30263.2 
3.4056e-06 0.00101883 0.00128949 0.000391724 1.31963e-19 9.25022e-20 5.96084e-20 5.09567e-20 0 0 2.59458e-20 0 6.22129e-14 0.302962 42.0688 30264.2 
-0.0999856 0.00750439 0.000207271 6.29654e-05 6.89563e-27 5.42192e-27 1.08339e-28 2.78491e-27 0 0 1.29544e-26 0 1.00001e-14 7649.99 0.000383264 254.018 
-0.0901231 0.00722276 0.000207307 6.29765e-05 1.69523e-25 2.2943e-25 3.8426e-27 5.48451e-26 0 0 2.70475e-25 0 1.00018e-14 7649.76 0.0117335 254.759 
-0.0812277 0.00692002 0.000208068 6.32073e-05 2.72935e-24 3.22698e-24 1.62357e-25 6.00456e-26 0 0 2.14474e-23 0 1.00385e-14 7642.01 0.339024 286.984 
-0.0732059 0.00660761 0.000218812 6.64712e-05 4.61431e-23 3.44705e-24 6.48826e-24 0 0 0 2.45636e-23 0 1.05569e-14 7450.55 6.76489 1341.74 
-0.0659731 0.006294 0.00033225 0.000100932 6.48754e-22 5.72842e-22 1.91603e-22 9.96112e-23 0 0 7.49244e-23 0 1.60298e-14 5951.96 38.3819 9483.51 
-0.0594525 0.00598541 0.000658891 0.000200159 2.58958e-21 1.97981e-21 8.07169e-22 1.01388e-21 0 0 4.08724e-22 0 3.1789e-14 3346.45 72.1264 21721.4 
-0.0535745 0.00568621 0.00101153 0.000307286 4.50274e-21 2.43392e-21 1.8195e-21 1.80848e-21 0 0 8.36554e-22 0 4.88026e-14 1713.28 81.0519 27369.3 
-0.0482765 0.00539941 0.00117501 0.000356947 4.79703e-21 2.83237e-21 2.43309e-21 2.418e-21 0 0 1.0141e-21 0 5.66898e-14 1192.11 84.9908 28635 
-0.0435015 0.00512694 0.00122419 0.000371888 4.70472e-21 3.82574e-21 2.37727e-21 3.55509e-21 0 0 1.0824e-21 0 5.90627e-14 999.996 85.0814 29074.2 
-0.0391983 0.00486991 0.00123838 0.000376196 4.9651e-21 3.98223e-21 2.33634e-21 4.07021e-21 0 0 1.13155e-21 0 5.97469e-14 906.024 83.7258 29229.2 
-0.0353206 0.00462883 0.00124696 0.000378804 5.32977e-21 4.38662e-21 2.43889e-21 4.54826e-21 0 0 1.1333e-21 0 6.0161e-14 830.951 81.9598 29328.9 
-0.0318263 0.00440373 0.00125403 0.000380953 5.82536e-21 4.76341e-21 2.69579e-21 4.95834e-21 0 0 1.19442e-21 0 6.05023e-14 763.093 80.1644 29412.7 
-0.0286777 0.00419432 0.00126007 0.000382786 6.354e-21 5.11254e-21 3.052e-21 5.30424e-21 0 0 1.30038e-21 0 6.07935e-14 700.973 78.4986 29485.4 
-0.0258407 0.00400008 0.00126524 0.000384357 6.8689e-21 5.46411e-21 3.47472e-21 5.60401e-21 0 0 1.41735e-21 0 6.1043e-14 643.946 76.9975 29549 
-0.0232845 0.00382033 0.00126968 0.000385706 7.34559e-21 5.83032e-21 3.93959e-21 5.8736e-21 0 0 1.54223e-21 0 6.12572e-14 591.508 75.6566 29604.9 
-0.0209813 0.00365426 0.00127349 0.000386865 7.75145e-21 6.19895e-21 4.4223e-21 6.12578e-21 0 0 1.6688e-21 0 6.14413e-14 543.227 74.4601 29654.2 
-0.0189061 0.00350103 0.00127678 0.000387862 8.06027e-21 6.54005e-21 4.90015e-21 6.37407e-21 0 0 1.77553e-21 0 6.15996e-14 498.736 73.3904 29697.9 
-0.0170362 0.00335978 0.0012796 0.00038872 8.32903e-21 6.85276e-21 5.35504e-21 6.62365e-21 0 0 1.88364e-21 0 6.17358e-14 457.716 72.4308 29736.9 
-0.0153513 0.00322962 0.00128203 0.000389457 8.58595e-21 7.14986e-21 5.77597e-21 6.87317e-21 0 0 1.98681e-21 0 6.18529e-14 419.886 71.5669 29771.6 
-0.0138331 0.0031097 0.00128411 0.00039009 8.85661e-21 7.43423e-21 6.16069e-21 7.11714e-21 0 0 2.07821e-21 0 6.19534e-14 384.998 70.7858 29802.8 
-0.0124648 0.00299918 0.0012859 0.000390633 9.22417e-21 7.71849e-21 6.51654e-21 7.34856e-21 0 0 2.17248e-21 0 6.20397e-14 352.83 70.0763 29830.9 
-0.0112317 0.00289728 0.00128743 0.000391098 9.70538e-21 8.02543e-21 6.85937e-21 7.55941e-21 0 0 2.26761e-21 0 6.21136e-14 323.178 69.4289 29856.3 
-0.0101203 0.00280325 0.00128874 0.000391495 1.03669e-20 8.37598e-21 7.21195e-21 7.75395e-21 0 0 2.36868e-21 0 6.21766e-14 295.857 68.8356 29879.5 
-0.00911834 0.00271639 0.00128984 0.000391832 1.12501e-20 8.79958e-21 7.60215e-21 7.94163e-21 0 0 2.49314e-21 0 6.22301e-14 270.695 68.2892 29900.7 
-0.008215 0.00263604 0.00129078 0.000392116 1.23184e-20 9.32145e-21 8.06022e-21 8.12983e-21 0 0 2.65206e-21 0 6.22753e-14 247.534 67.7839 29920.3 
-0.00740038 0.00256161 0.00129156 0.000392353 1.36499e-20 9.975e-21 8.61656e-21 8.34276e-21 0 0 2.8391e-21 0 6.2313e-14 226.225 67.3145 29938.4 
-0.00666561 0.00249252 0.00129221 0.000392549 1.53095e-20 1.07954e-20 9.30066e-21 8.61079e-21 0 0 3.06976e-21 0 6.2344e-14 206.63 66.877 29955.5 
-0.00600267 0.00242826 0.00129272 0.000392707 1.72535e-20 1.18202e-20 1.014e-20 8.96303e-21 0 0 3.35208e-21 0 6.23691e-14 188.618 66.468 29971.7 
-0.00540433 0.00236837 0.00129313 0.000392831 1.95023e-20 1.3109e-20 1.11587e-20 9.42827e-21 0 0 3.70696e-21 0 6.23888e-14 172.067 66.0848 29987.3 
-0.00486408 0.00231241 0.00129344 0.000392923 2.22151e-20 1.47016e-20 1.23762e-20 1.00404e-20 0 0 4.14922e-21 0 6.24034e-14 156.863 65.7255 30002.3 
-0.00437603 0.00225998 0.00129364 0.000392987 2.55192e-20 1.66238e-20 1.38074e-20 1.08381e-20 0 0 4.67714e-21 0 6.24135e-14 142.898 65.3886 30017.1 
-0.00393488 0.00221074 0.00129376 0.000393023 2.92205e-20 1.8908e-20 1.54618e-20 1.18391e-20 0 0 5.3067e-21 0 6.24193e-14 130.071 65.0734 30031.8 
-0.00353584 0.00216436 0.0012938 0.000393035 3.31257e-20 2.15797e-20 1.7343e-20 1.30683e-20 0 0 6.03794e-21 0 6.24211e-14 118.286 64.7798 30046.5 
-0.00317458 0.00212053 0.00129377 0.000393024 3.75687e-20 2.4665e-20 1.94482e-20 1.45527e-20 0 0 6.87739e-21 0 6.24193e-14 107.454 64.5077 30061.2 
-0.00284719 0.002079 0.00129366 0.000392991 4.27776e-20 2.81653e-20 2.17677e-20 1.62995e-20 0 0 7.84526e-21 0 6.24142e-14 97.4925 64.2578 30076 
-0.00255013 0.00203951 0.00129349 0.00039294 4.85244e-20 3.20322e-20 2.42857e-20 1.82999e-20 0 0 8.95042e-21 0 6.24061e-14 88.3224 64.0307 30091 
-0.0022802 0.00200186 0.00129327 0.000392872 5.45171e-20 3.62541e-20 2.69798e-20 2.05278e-20 0 0 1.01596e-20 0 6.23953e-14 79.8705 63.8273 30106.1 
-0.00203448 0.00196584 0.001293 0.00039279 6.09729e-20 4.08412e-20 2.98211e-20 2.29533e-20 0 0 1.14551e-20 0 6.23823e-14 72.0682 63.6482 30121.3 
-0.00181034 0.00193128 0.00129269 0.000392697 6.78983e-20 4.57154e-20 3.27751e-20 2.55488e-20 0 0 1.28307e-20 0 6.23674e-14 64.8512 63.4942 30136.5 
-0.00160537 0.001898 0.00129235 0.000392594 7.48465e-20 5.07353e-20 3.58017e-20 2.8271e-20 0 0 1.42186e-20 0 6.23511e-14 58.1591 63.3656 30151.7 
-0.00141739 0.00186587 0.00129199 0.000392485 8.18706e-20 5.5798e-20 3.88555e-20 3.10532e-20 0 0 1.55646e-20 0 6.23338e-14 51.9356 63.2626 30166.6 
-0.00124439 0.00183475 0.00129162 0.000392373 8.91413e-20 6.08959e-20 4.18866e-20 3.38523e-20 0 0 1.70007e-20 0 6.23161e-14 46.1273 63.1846 30181 
-0.00108453 0.00180452 0.00129126 0.000392262 9.65891e-20 6.59778e-20 4.48423e-20 3.66302e-20 0 0 1.85137e-20 0 6.22983e-14 40.6841 63.1307 30194.9 
-0.000936126 0.00177506 0.0012909 0.000392153 1.03687e-19 7.08564e-20 4.76679e-20 3.93334e-20 0 0 1.98554e-20 0 6.22811e-14 35.5582 63.0995 30208.1 
-0.000797599 0.00174629 0.00129056 0.000392051 1.10052e-19 7.54689e-20 5.03085e-20 4.18869e-20 0 0 2.1099e-20 0 6.22649e-14 30.7041 63.089 30220.3 
-0.000667496 0.00171811 0.00129026 0.000391958 1.1578e-19 7.9792e-20 5.27101e-20 4.42236e-20 0 0 2.23144e-20 0 6.22502e-14 26.078 63.0967 30231.3 